#INFO: **** input file is /lustre06/project/6058907/simran1/pyscf-mrcc/input.py ****
import pyscf
from pyscf import cc, lib, tools, scf, symm, ao2mo
from pyscf.gto.basis import parse_gaussian
from pyscf.cc.mrcc import MRCCInterface
from pyscf.scf import atom_hf

name = 'out'
mol = pyscf.M(
    atom = '''
        N
    ''',
    unit = 'angstrom',
    basis = {
            'N' : parse_gaussian.load('N-aVDZ-EMSL.gbs', 'N')
    },
    charge = 0,
    spin = 3,
    symmetry = True,
    verbose = 9,
    symmetry_subgroup = 'D2h',
    output = name +'.txt',
    max_memory = 4000,
)

original_AtomSphAverageRHF = atom_hf.AtomSphAverageRHF

class CustomAtomSphAverageRHF(original_AtomSphAverageRHF):
    def __init__(self, mol):
        super().__init__(mol)
        self.max_cycle = 100
        self.direct_scf = False

atom_hf.AtomSphAverageRHF = CustomAtomSphAverageRHF

mf = mol.RHF().set(
    conv_tol=1e-15,
    max_cycle=9999,
    ddm_tol=1e-15,
    direct_scf=False,
    chkfile=name + '.chk',
    init_guess='atom',
    irrep_nelec={'Ag': 4, 'B3u': 1, 'B2u': 1, 'B1u': 1}
)

mf.kernel()

atom_hf.AtomSphAverageRHF = original_AtomSphAverageRHF
#pyscf.tools.fcidump.from_chkfile_uhf('FCIdump',name+'.chk',tol=1e-18, float_format='% 0.20E',molpro_orbsym=False,orbsym=None)
pyscf.tools.fcidump.from_scf(mf,'fort.55',tol=1e-18, float_format='% 0.20E',molpro_orbsym=False)

#MRCCInterface.run_mrcc(mf, fort_file='fort.55', mrcc_input_file='MINP', tol=1e-18, float_format='% 0.20E', molpro_orbsym=False)
#INFO: ******************** input file end ********************


System: uname_result(system='Linux', node='narval3', release='4.18.0-553.50.1.el8_10.x86_64', version='#1 SMP Wed Apr 16 11:36:26 UTC 2025', machine='x86_64')  Threads 64
Python 3.13.2 (main, Feb  5 2025, 15:09:29) [GCC 13.3.0]
numpy 2.2.2  scipy 1.15.1  h5py 3.12.1
Date: Wed Jun  4 19:37:07 2025
PySCF version 2.8.0
PySCF path  /lustre06/project/6058907/simran1/pyscf-mrcc/lib/python3.13/site-packages/pyscf

[CONFIG] ARGPARSE = False
[CONFIG] DEBUG = False
[CONFIG] MAX_MEMORY = 4000
[CONFIG] TMPDIR = /tmp
[CONFIG] UNIT = angstrom
[CONFIG] VERBOSE = 3
[CONFIG] conf_file = None
[INPUT] verbose = 9
[INPUT] max_memory = 4000 
[INPUT] num. atoms = 1
[INPUT] num. electrons = 7
[INPUT] charge = 0
[INPUT] spin (= nelec alpha-beta = 2S) = 3
[INPUT] symmetry True subgroup D2h
[INPUT] Mole.unit = angstrom
[INPUT] Symbol           X                Y                Z      unit          X                Y                Z       unit  Magmom
[INPUT]  1 N      0.000000000000   0.000000000000   0.000000000000 AA    0.000000000000   0.000000000000   0.000000000000 Bohr   0.0
[INPUT] ---------------- BASIS SET ---------------- 
[INPUT] l, kappa, [nprim/nctr], expnt,             c_1 c_2 ...
[INPUT] N
[INPUT] 0    0    [9    /2   ]  9046              0.0007 -0.000153
                                1357              0.005389 -0.001208
                                309.3             0.027406 -0.005992
                                87.73             0.103207 -0.024544
                                28.56             0.278723 -0.067459
                                10.21             0.44854 -0.158078
                                3.838             0.278238 -0.121831
                                0.7466            0.01544 0.549003
                                0.2248            -0.002864 0.578815
[INPUT] 0    0    [1    /1   ]  0.2248               1
[INPUT] 0    0    [1    /1   ]  0.06124              1
[INPUT] 1    0    [4    /1   ]  13.55             0.039919
                                2.917             0.217169
                                0.7973            0.510319
                                0.2185            0.462214
[INPUT] 1    0    [1    /1   ]  0.2185               1
[INPUT] 1    0    [1    /1   ]  0.05611              1
[INPUT] 2    0    [1    /1   ]  0.817                1
[INPUT] 2    0    [1    /1   ]  0.23                 1

nuclear repulsion = 0
point group symmetry = SO3, use subgroup D2h
symmetry origin: [0. 0. 0.]
symmetry axis x: [1. 0. 0.]
symmetry axis y: [0. 1. 0.]
symmetry axis z: [0. 0. 1.]
num. orbitals of irrep Ag = 8
num. orbitals of irrep B1g = 2
num. orbitals of irrep B2g = 2
num. orbitals of irrep B3g = 2
num. orbitals of irrep B1u = 3
num. orbitals of irrep B2u = 3
num. orbitals of irrep B3u = 3
number of shells = 8
number of NR pGTOs = 39
number of NR cGTOs = 23
basis = {'N': [[0, [9046.0, 0.0007, -0.000153], [1357.0, 0.005389, -0.001208], [309.3, 0.027406, -0.005992], [87.73, 0.103207, -0.024544], [28.56, 0.278723, -0.067459], [10.21, 0.44854, -0.158078], [3.838, 0.278238, -0.121831], [0.7466, 0.01544, 0.549003], [0.2248, -0.002864, 0.578815]], [0, [0.2248, 1.0]], [0, [0.06124, 1.0]], [1, [13.55, 0.039919], [2.917, 0.217169], [0.7973, 0.510319], [0.2185, 0.462214]], [1, [0.2185, 1.0]], [1, [0.05611, 1.0]], [2, [0.817, 1.0]], [2, [0.23, 1.0]]]}
ecp = {}
bas 0, expnt(s) = [9.046e+03 1.357e+03 3.093e+02 8.773e+01 2.856e+01 1.021e+01 3.838e+00
 7.466e-01 2.248e-01]
bas 1, expnt(s) = [0.2248]
bas 2, expnt(s) = [0.06124]
bas 3, expnt(s) = [13.55    2.917   0.7973  0.2185]
bas 4, expnt(s) = [0.2185]
bas 5, expnt(s) = [0.05611]
bas 6, expnt(s) = [0.817]
bas 7, expnt(s) = [0.23]
CPU time:         0.97
arg.atm = [[ 7 20  1 23  0  0]]
arg.bas = [[ 0  0  9  2  0 24 33  0]
 [ 0  0  1  1  0 51 52  0]
 [ 0  0  1  1  0 53 54  0]
 [ 0  1  4  1  0 55 59  0]
 [ 0  1  1  1  0 63 64  0]
 [ 0  1  1  1  0 65 66  0]
 [ 0  2  1  1  0 67 68  0]
 [ 0  2  1  1  0 69 70  0]]
arg.env = [ 0.00000000e+00  0.00000000e+00  0.00000000e+00  0.00000000e+00
  0.00000000e+00  0.00000000e+00  0.00000000e+00  0.00000000e+00
  0.00000000e+00  0.00000000e+00  0.00000000e+00  0.00000000e+00
  0.00000000e+00  0.00000000e+00  0.00000000e+00  0.00000000e+00
  0.00000000e+00  0.00000000e+00  0.00000000e+00  0.00000000e+00
  0.00000000e+00  0.00000000e+00  0.00000000e+00  0.00000000e+00
  9.04600000e+03  1.35700000e+03  3.09300000e+02  8.77300000e+01
  2.85600000e+01  1.02100000e+01  3.83800000e+00  7.46600000e-01
  2.24800000e-01  1.64042177e+00  3.04409439e+00  5.10676225e+00
  7.47455423e+00  8.69974465e+00  6.47270078e+00  1.92757026e+00
  3.13312939e-02 -2.36230130e-03 -3.58549285e-01 -6.82365109e-01
 -1.11653344e+00 -1.77754839e+00 -2.10558871e+00 -2.28115991e+00
 -8.44017650e-01  1.11405261e+00  4.77421529e-01  2.24800000e-01
  8.24825833e-01  6.12400000e-02  3.11022216e-01  1.35500000e+01
  2.91700000e+00  7.97300000e-01  2.18500000e-01  3.02752891e+00
  2.41519886e+00  1.12163995e+00  2.01438243e-01  2.18500000e-01
  4.35811508e-01  5.61100000e-02  7.96681493e-02  8.17000000e-01
  1.83196843e+00  2.30000000e-01  1.99321019e-01]
ecpbas  = []


******** <class 'pyscf.scf.hf_symm.SymAdaptedROHF'> ********
method = SymAdaptedROHF
initial guess = atom
damping factor = 0
level_shift factor = 0
DIIS = <class 'pyscf.scf.diis.CDIIS'>
diis_start_cycle = 1
diis_space = 8
diis_damp = 0
SCF conv_tol = 1e-15
SCF conv_tol_grad = None
SCF ddm_tol = 1e-15
SCF max_cycles = 9999
direct_scf = False
chkfile to save SCF result = out.chk
max_memory 4000 MB (current use 85 MB)
num. doubly occ = 2  num. singly occ = 3
irrep_nelec {'Ag': 4, 'B3u': 1, 'B2u': 1, 'B1u': 1}
Freeze 7 electrons in irreps ['Ag', 'B3u', 'B2u', 'B1u']
    0 free electrons in irreps B1g B2g B3g
cond(S) = 88.23255039944318
Set gradient conv threshold to 3.16228e-08
Initial guess from the superposition of atomic densities.
Spherically averaged atomic HF for {'N'}


******** <class '__main__.CustomAtomSphAverageRHF'> ********
method = CustomAtomSphAverageRHF
initial guess = minao
damping factor = 0
level_shift factor = 0
DIIS = <class 'pyscf.scf.diis.CDIIS'>
diis_start_cycle = 1
diis_space = 8
diis_damp = 0
SCF conv_tol = 1e-09
SCF conv_tol_grad = None
SCF ddm_tol = 1e-10
SCF max_cycles = 100
direct_scf = False
chkfile to save SCF result = /tmp/tmpx8vzksnp
max_memory 4000 MB (current use 86 MB)
atom = N
Set gradient conv threshold to 3.16228e-05
Initial guess from minao.
Nelec from initial guess = 6.998830474197233
E1 = -74.23914991285118  E_coul = 20.45735422537929
init E= -53.7817956874719
l = 0  e_0 = -15.5387546
l = 0  e_1 = -0.914097449
l = 0  e_2 = 0.153713476
l = 0  e_3 = 1.37196991
l = 1  e_0 = -0.166064547
l = 1  e_1 = 0.175566151
l = 1  e_2 = 1.13819897
l = 2  e_0 = 0.691314519
l = 2  e_1 = 2.49882579
    CPU time for initialize scf     10.27 sec, wall time      1.70 sec
l = 0  e_0 = -15.5387546
l = 0  e_1 = -0.914097449
l = 0  e_2 = 0.153713476
l = 0  e_3 = 1.37196991
l = 1  e_0 = -0.166064547
l = 1  e_1 = 0.175566151
l = 1  e_2 = 1.13819897
l = 2  e_0 = 0.691314519
l = 2  e_1 = 2.49882579
l = 0  occ = 2 + 0
l = 1  occ = 0 + 1
l = 2  occ = 0 + 0
l = 3  occ = 0 + 0
E1 = -72.54049767912306  E_coul = 18.71039081753589
cycle= 1 E= -53.8301068615872  delta_E= -0.0483  |g|=    0  |ddm|= 0.397
    CPU time for cycle= 1      2.16 sec, wall time      0.31 sec
diis-norm(errvec)=0.260557
diis-c [-0.06788971  1.        ]
l = 0  e_0 = -15.9940735
l = 0  e_1 = -1.09872612
l = 0  e_2 = 0.129031889
l = 0  e_3 = 1.2418988
l = 1  e_0 = -0.317483606
l = 1  e_1 = 0.157761231
l = 1  e_2 = 1.00176589
l = 2  e_0 = 0.640229144
l = 2  e_1 = 2.33993257
l = 0  occ = 2 + 0
l = 1  occ = 0 + 1
l = 2  occ = 0 + 0
l = 3  occ = 0 + 0
E1 = -73.4180670478482  E_coul = 19.578323560245654
cycle= 2 E= -53.8397434876025  delta_E= -0.00964  |g|=    0  |ddm|= 0.436
    CPU time for cycle= 2      4.19 sec, wall time      0.70 sec
diis-norm(errvec)=0.105875
diis-c [-5.89599037e-04  2.84303569e-01  7.15696431e-01]
l = 0  e_0 = -15.8285411
l = 0  e_1 = -1.03608023
l = 0  e_2 = 0.13748539
l = 0  e_3 = 1.28594555
l = 1  e_0 = -0.261182486
l = 1  e_1 = 0.165046201
l = 1  e_2 = 1.05212377
l = 2  e_0 = 0.6588248
l = 2  e_1 = 2.39808118
l = 0  occ = 2 + 0
l = 1  occ = 0 + 1
l = 2  occ = 0 + 0
l = 3  occ = 0 + 0
E1 = -73.12168469609958  E_coul = 19.27909870479826
cycle= 3 E= -53.8425859913013  delta_E= -0.00284  |g|=    0  |ddm|= 0.0974
    CPU time for cycle= 3      4.73 sec, wall time      0.80 sec
diis-norm(errvec)=0.0112253
diis-c [-1.62028534e-06 -9.99080254e-02 -1.29889418e-01  1.22979744e+00]
l = 0  e_0 = -15.8366919
l = 0  e_1 = -1.04058211
l = 0  e_2 = 0.137004411
l = 0  e_3 = 1.28331066
l = 1  e_0 = -0.263501946
l = 1  e_1 = 0.164910311
l = 1  e_2 = 1.05025053
l = 2  e_0 = 0.658060396
l = 2  e_1 = 2.39564485
l = 0  occ = 2 + 0
l = 1  occ = 0 + 1
l = 2  occ = 0 + 0
l = 3  occ = 0 + 0
E1 = -73.13711053379848  E_coul = 19.294505958430058
cycle= 4 E= -53.8426045753684  delta_E= -1.86e-05  |g|=    0  |ddm|= 0.0229
    CPU time for cycle= 4      4.45 sec, wall time      0.79 sec
diis-norm(errvec)=0.000610928
diis-c [-1.42439838e-08  3.08092896e-03  6.34281718e-03 -7.54204222e-02
  1.06599668e+00]
l = 0  e_0 = -15.837082
l = 0  e_1 = -1.04086367
l = 0  e_2 = 0.136887696
l = 0  e_3 = 1.28301244
l = 1  e_0 = -0.263687448
l = 1  e_1 = 0.164828545
l = 1  e_2 = 1.0499663
l = 2  e_0 = 0.657894731
l = 2  e_1 = 2.39532464
l = 0  occ = 2 + 0
l = 1  occ = 0 + 1
l = 2  occ = 0 + 0
l = 3  occ = 0 + 0
E1 = -73.13826526880831  E_coul = 19.29566062872177
cycle= 5 E= -53.8426046400865  delta_E= -6.47e-08  |g|=    0  |ddm|= 0.00102
    CPU time for cycle= 5      4.37 sec, wall time      0.70 sec
diis-norm(errvec)=1.1181e-05
diis-c [-1.16701003e-11  2.66632123e-04  1.31418557e-04 -1.24296347e-03
 -6.73654202e-02  1.06821033e+00]
l = 0  e_0 = -15.8370799
l = 0  e_1 = -1.04086778
l = 0  e_2 = 0.136886364
l = 0  e_3 = 1.28301199
l = 1  e_0 = -0.263690114
l = 1  e_1 = 0.16482884
l = 1  e_2 = 1.04996609
l = 2  e_0 = 0.657892667
l = 2  e_1 = 2.39532316
l = 0  occ = 2 + 0
l = 1  occ = 0 + 1
l = 2  occ = 0 + 0
l = 3  occ = 0 + 0
E1 = -73.13824117292528  E_coul = 19.29563653276565
cycle= 6 E= -53.8426046401596  delta_E= -7.31e-11  |g|=    0  |ddm|= 8.51e-06
    CPU time for cycle= 6      4.60 sec, wall time      0.80 sec
diis-norm(errvec)=3.88963e-07
diis-c [-2.72129299e-16 -2.07038575e-06  1.53684753e-05 -1.30004497e-04
  5.17340855e-03 -8.90442548e-02  1.08398755e+00]
l = 0  e_0 = -15.8370804
l = 0  e_1 = -1.0408682
l = 0  e_2 = 0.136886329
l = 0  e_3 = 1.28301192
l = 1  e_0 = -0.263690432
l = 1  e_1 = 0.164828861
l = 1  e_2 = 1.04996597
l = 2  e_0 = 0.657892556
l = 2  e_1 = 2.39532295
l = 0  occ = 2 + 0
l = 1  occ = 0 + 1
l = 2  occ = 0 + 0
l = 3  occ = 0 + 0
E1 = -73.13824084052624  E_coul = 19.295636200366474
cycle= 7 E= -53.8426046401598  delta_E= -1.35e-13  |g|=    0  |ddm|= 2.97e-07
    CPU time for cycle= 7      4.55 sec, wall time      0.71 sec
diis-norm(errvec)=5.52726e-09
Linear dependence found in DIIS error vectors.
diis-c [-1.15056475e-15 -8.70524501e-07  7.15447074e-06 -6.06279841e-05
  2.36966505e-03 -4.07630577e-02  4.96522703e-01  5.41925034e-01]
l = 0  e_0 = -15.8370804
l = 0  e_1 = -1.0408682
l = 0  e_2 = 0.136886328
l = 0  e_3 = 1.28301192
l = 1  e_0 = -0.263690434
l = 1  e_1 = 0.164828861
l = 1  e_2 = 1.04996597
l = 2  e_0 = 0.657892555
l = 2  e_1 = 2.39532295
l = 0  occ = 2 + 0
l = 1  occ = 0 + 1
l = 2  occ = 0 + 0
l = 3  occ = 0 + 0
E1 = -73.13824084330038  E_coul = 19.295636203140592
cycle= 8 E= -53.8426046401598  delta_E= -2.84e-14  |g|=    0  |ddm|= 5.2e-09
    CPU time for cycle= 8      4.30 sec, wall time      0.70 sec
diis-norm(errvec)=2.80852e-09
Linear dependence found in DIIS error vectors.
diis-c [-9.68780734e-16 -5.38151853e-07  4.67901648e-06 -3.96827557e-05
  1.53682646e-03 -2.64276862e-02  3.22013236e-01  3.51457679e-01
  3.51455487e-01]
l = 0  e_0 = -15.8370804
l = 0  e_1 = -1.0408682
l = 0  e_2 = 0.136886328
l = 0  e_3 = 1.28301192
l = 1  e_0 = -0.263690434
l = 1  e_1 = 0.164828861
l = 1  e_2 = 1.04996597
l = 2  e_0 = 0.657892555
l = 2  e_1 = 2.39532295
l = 0  occ = 2 + 0
l = 1  occ = 0 + 1
l = 2  occ = 0 + 0
l = 3  occ = 0 + 0
E1 = -73.13824084417546  E_coul = 19.29563620401569
cycle= 9 E= -53.8426046401598  delta_E= 2.84e-14  |g|=    0  |ddm|= 1.7e-09
    CPU time for cycle= 9      4.69 sec, wall time      0.80 sec
diis-norm(errvec)=1.9207e-09
Linear dependence found in DIIS error vectors.
diis-c [-3.06429683e-16  2.59654571e-01  3.86947014e-06 -3.31945197e-05
  1.10216250e-03 -1.88786933e-02  2.38888727e-01  2.59616850e-01
  2.59645708e-01]
l = 0  e_0 = -15.8370804
l = 0  e_1 = -1.0408682
l = 0  e_2 = 0.136886328
l = 0  e_3 = 1.28301192
l = 1  e_0 = -0.263690435
l = 1  e_1 = 0.16482886
l = 1  e_2 = 1.04996597
l = 2  e_0 = 0.657892555
l = 2  e_1 = 2.39532295
l = 0  occ = 2 + 0
l = 1  occ = 0 + 1
l = 2  occ = 0 + 0
l = 3  occ = 0 + 0
E1 = -73.13824084681345  E_coul = 19.295636206653697
cycle= 10 E= -53.8426046401597  delta_E= 1.42e-14  |g|=    0  |ddm|= 2.17e-09
    CPU time for cycle= 10      4.54 sec, wall time      0.80 sec
diis-norm(errvec)=8.75201e-10
Linear dependence found in DIIS error vectors.
diis-c [-2.79842636e-17  2.49494729e-01  2.49408037e-01  1.94677758e-08
 -5.15342727e-06 -4.13841631e-05  2.96506295e-03  2.48841762e-01
  2.49336927e-01]
l = 0  e_0 = -15.8370804
l = 0  e_1 = -1.0408682
l = 0  e_2 = 0.136886328
l = 0  e_3 = 1.28301192
l = 1  e_0 = -0.263690435
l = 1  e_1 = 0.164828861
l = 1  e_2 = 1.04996597
l = 2  e_0 = 0.657892555
l = 2  e_1 = 2.39532295
l = 0  occ = 2 + 0
l = 1  occ = 0 + 1
l = 2  occ = 0 + 0
l = 3  occ = 0 + 0
E1 = -73.13824084515144  E_coul = 19.29563620499169
cycle= 11 E= -53.8426046401597  delta_E=    0  |g|=    0  |ddm|= 6.24e-10
    CPU time for cycle= 11      4.22 sec, wall time      0.70 sec
diis-norm(errvec)=5.80131e-10
Linear dependence found in DIIS error vectors.
diis-c [ 6.07956825e-17  2.00335126e-01  2.00266226e-01  2.00525858e-01
 -3.09163484e-06  4.09799461e-05 -1.19969053e-03  1.99823358e-01
  2.00211233e-01]
l = 0  e_0 = -15.8370804
l = 0  e_1 = -1.0408682
l = 0  e_2 = 0.136886328
l = 0  e_3 = 1.28301192
l = 1  e_0 = -0.263690436
l = 1  e_1 = 0.164828861
l = 1  e_2 = 1.04996597
l = 2  e_0 = 0.657892555
l = 2  e_1 = 2.39532295
l = 0  occ = 2 + 0
l = 1  occ = 0 + 1
l = 2  occ = 0 + 0
l = 3  occ = 0 + 0
E1 = -73.1382408453689  E_coul = 19.295636205209107
cycle= 12 E= -53.8426046401598  delta_E= -4.26e-14  |g|=    0  |ddm|= 1.58e-10
    CPU time for cycle= 12      4.74 sec, wall time      0.80 sec
diis-norm(errvec)=4.18796e-10
Linear dependence found in DIIS error vectors.
diis-c [-5.15090296e-17  1.67580118e-01  1.67879935e-01  1.68043075e-01
  1.68119551e-01  1.28101703e-04 -5.33215918e-03  1.66310637e-01
  1.67270741e-01]
l = 0  e_0 = -15.8370804
l = 0  e_1 = -1.0408682
l = 0  e_2 = 0.136886328
l = 0  e_3 = 1.28301192
l = 1  e_0 = -0.263690436
l = 1  e_1 = 0.164828861
l = 1  e_2 = 1.04996597
l = 2  e_0 = 0.657892555
l = 2  e_1 = 2.39532295
l = 0  occ = 2 + 0
l = 1  occ = 0 + 1
l = 2  occ = 0 + 0
l = 3  occ = 0 + 0
E1 = -73.13824084635351  E_coul = 19.29563620619371
cycle= 13 E= -53.8426046401598  delta_E= -1.42e-14  |g|=    0  |ddm|= 2.6e-10
    CPU time for cycle= 13      3.97 sec, wall time      0.61 sec
diis-norm(errvec)=2.21154e-10
Linear dependence found in DIIS error vectors.
diis-c [ 2.27046017e-16  1.43051022e-01  1.43161170e-01  1.43288184e-01
  1.43333187e-01  1.43392244e-01 -1.50506714e-03  1.42387752e-01
  1.42891507e-01]
l = 0  e_0 = -15.8370804
l = 0  e_1 = -1.0408682
l = 0  e_2 = 0.136886328
l = 0  e_3 = 1.28301192
l = 1  e_0 = -0.263690436
l = 1  e_1 = 0.164828861
l = 1  e_2 = 1.04996597
l = 2  e_0 = 0.657892555
l = 2  e_1 = 2.39532295
l = 0  occ = 2 + 0
l = 1  occ = 0 + 1
l = 2  occ = 0 + 0
l = 3  occ = 0 + 0
E1 = -73.13824084717173  E_coul = 19.295636207012
cycle= 14 E= -53.8426046401597  delta_E= 7.11e-14  |g|=    0  |ddm|= 5.77e-10
    CPU time for cycle= 14      4.67 sec, wall time      0.80 sec
diis-norm(errvec)=3.77495e-10
Linear dependence found in DIIS error vectors.
diis-c [-2.89052492e-16  1.25000000e-01  1.25000000e-01  1.25000000e-01
  1.25000000e-01  1.25000000e-01  1.25000000e-01  1.25000000e-01
  1.25000000e-01]
l = 0  e_0 = -15.8370804
l = 0  e_1 = -1.0408682
l = 0  e_2 = 0.136886328
l = 0  e_3 = 1.28301192
l = 1  e_0 = -0.263690436
l = 1  e_1 = 0.164828861
l = 1  e_2 = 1.04996597
l = 2  e_0 = 0.657892555
l = 2  e_1 = 2.39532295
l = 0  occ = 2 + 0
l = 1  occ = 0 + 1
l = 2  occ = 0 + 0
l = 3  occ = 0 + 0
E1 = -73.1382408468954  E_coul = 19.295636206735633
cycle= 15 E= -53.8426046401598  delta_E= -2.84e-14  |g|=    0  |ddm|= 2.45e-10
    CPU time for cycle= 15      4.86 sec, wall time      0.80 sec
diis-norm(errvec)=2.53856e-10
Linear dependence found in DIIS error vectors.
diis-c [-2.89052492e-16  1.25000000e-01  1.25000000e-01  1.25000000e-01
  1.25000000e-01  1.25000000e-01  1.25000000e-01  1.25000000e-01
  1.25000000e-01]
l = 0  e_0 = -15.8370804
l = 0  e_1 = -1.0408682
l = 0  e_2 = 0.136886328
l = 0  e_3 = 1.28301192
l = 1  e_0 = -0.263690436
l = 1  e_1 = 0.164828861
l = 1  e_2 = 1.04996597
l = 2  e_0 = 0.657892555
l = 2  e_1 = 2.39532295
l = 0  occ = 2 + 0
l = 1  occ = 0 + 1
l = 2  occ = 0 + 0
l = 3  occ = 0 + 0
E1 = -73.13824084636524  E_coul = 19.295636206205444
cycle= 16 E= -53.8426046401598  delta_E= -2.84e-14  |g|=    0  |ddm|= 9.92e-11
    CPU time for cycle= 16      4.44 sec, wall time      0.79 sec
l = 0  e_0 = -15.8370804
l = 0  e_1 = -1.0408682
l = 0  e_2 = 0.136886328
l = 0  e_3 = 1.28301192
l = 1  e_0 = -0.263690436
l = 1  e_1 = 0.164828861
l = 1  e_2 = 1.04996597
l = 2  e_0 = 0.657892555
l = 2  e_1 = 2.39532295
l = 0  occ = 2 + 0
l = 1  occ = 0 + 1
l = 2  occ = 0 + 0
l = 3  occ = 0 + 0
E1 = -73.13824084583261  E_coul = 19.295636205672825
Extra cycle  E= -53.8426046401598  delta_E=    0  |g|=    0  |ddm|= 9.92e-11
    CPU time for scf_cycle     81.38 sec, wall time     13.50 sec
    CPU time for SCF     81.38 sec, wall time     13.51 sec
Atomic HF for atom  N  converged. SCF energy = -53.8426046401598

Atom N, E = -53.8426046402
Nelec from initial guess = (np.float64(3.5000000000000027), np.float64(3.5000000000000027))
E1 = -73.13824084583261  Ecoul = 19.29563620567283
init E= -53.8426046401598
    CPU time for initialize scf     90.10 sec, wall time     15.64 sec
HOMO (B1u) = -0.263690435873537  LUMO (Ag) = 0.13688632756479
double occ irrep_nelec = [2, 0, 0, 0, 0, 0, 0]
single occ irrep_nelec = [0, 0, 0, 0, 1, 1, 1]
                  Roothaan           | alpha              | beta
  Highest 2-occ =  -1.04086820030248 |  -1.04086820030248 |  -1.04086820030248
  Lowest 0-occ =    0.13688632756479 |  0.136886327564789 |  0.136886327564789
  1-occ =         -0.263690435873537 | -0.263690435873537 | -0.263690435873537
  1-occ =         -0.263690435873537 | -0.263690435873537 | -0.263690435873537
  1-occ =         -0.263690435873538 | -0.263690435873538 | -0.263690435873538
  Roothaan mo_energy =
[-15.83708036  -1.0408682    0.13688633   0.65789255   0.65789255
   1.28301192   2.39532295   2.39532295   0.65789255   2.39532295
   0.65789255   2.39532295   0.65789255   2.39532295  -0.26369044
   0.16482886   1.04996597  -0.26369044   0.16482886   1.04996597
  -0.26369044   0.16482886   1.04996597]
  alpha mo_energy =
[-15.83708036  -1.0408682    0.13688633   0.65789255   0.65789255
   1.28301192   2.39532295   2.39532295   0.65789255   2.39532295
   0.65789255   2.39532295   0.65789255   2.39532295  -0.26369044
   0.16482886   1.04996597  -0.26369044   0.16482886   1.04996597
  -0.26369044   0.16482886   1.04996597]
  beta  mo_energy =
[-15.83708036  -1.0408682    0.13688633   0.65789255   0.65789255
   1.28301192   2.39532295   2.39532295   0.65789255   2.39532295
   0.65789255   2.39532295   0.65789255   2.39532295  -0.26369044
   0.16482886   1.04996597  -0.26369044   0.16482886   1.04996597
  -0.26369044   0.16482886   1.04996597]
E1 = -73.1382408460684  Ecoul = 18.7810061285935
cycle= 1 E= -54.3572347174749  delta_E= -0.515  |g|= 0.173  |ddm|= 0.402
    CPU time for cycle= 1      2.23 sec, wall time      0.39 sec
diis-norm(errvec)=0.244356
diis-c [-0.05970968  1.        ]
HOMO (B3u) = -0.277599927146499  LUMO (Ag) = 0.136886327567234
double occ irrep_nelec = [2, 0, 0, 0, 0, 0, 0]
single occ irrep_nelec = [0, 0, 0, 0, 1, 1, 1]
                  Roothaan           | alpha              | beta
  Highest 2-occ =  -1.04086820027987 |  -1.23246493043055 | -0.849271470129189
  Lowest 0-occ =   0.136886327567234 |  0.121392502011115 |  0.152380153123352
  1-occ =         -0.277599927146501 | -0.613521580171838 |  0.112604085104589
  1-occ =         -0.277599927146501 | -0.613521580171839 |  0.112604085104589
  1-occ =         -0.277599927146499 | -0.613521580171838 |  0.112604085104591
  Roothaan mo_energy =
[-15.83708036  -1.0408682    0.13688633   0.65789255   0.65789255
   1.28301192   2.39532295   2.39532295   0.65789255   2.39532295
   0.65789255   2.39532295   0.65789255   2.39532295  -0.27759993
   0.17440098   1.05430335  -0.27759993   0.17440098   1.05430335
  -0.27759993   0.17440098   1.05430335]
  alpha mo_energy =
[-15.87220165  -1.23246493   0.1213925    0.61854227   0.61854227
   1.23419923   2.31704691   2.31704691   0.61854227   2.31704691
   0.61854227   2.31704691   0.61854227   2.31704691  -0.61352158
   0.1467316    0.98023035  -0.61352158   0.1467316    0.98023035
  -0.61352158   0.1467316    0.98023035]
  beta  mo_energy =
[-15.80195908  -0.84927147   0.15238015   0.69724284   0.69724284
   1.33182461   2.47359898   2.47359898   0.69724284   2.47359898
   0.69724284   2.47359898   0.69724284   2.47359898   0.11260409
   0.16514308   1.11102126   0.11260409   0.16514308   1.11102126
   0.11260409   0.16514308   1.11102126]
E1 = -74.17443421163453  Ecoul = 19.78930067411909
cycle= 2 E= -54.3851335375154  delta_E= -0.0279  |g|= 0.106  |ddm|= 0.231
    CPU time for cycle= 2      4.88 sec, wall time      0.75 sec
diis-norm(errvec)=0.15006
diis-c [-0.00988368  0.33491137  0.66508863]
HOMO (B1u) = -0.192010339533738  LUMO (Ag) = 0.148164117664098
double occ irrep_nelec = [2, 0, 0, 0, 0, 0, 0]
single occ irrep_nelec = [0, 0, 0, 0, 1, 1, 1]
                  Roothaan           | alpha              | beta
  Highest 2-occ = -0.962457683226579 |  -1.13185236960837 |  -0.71456746715383
  Lowest 0-occ =   0.148164117664098 |  0.143288100034043 |  0.164279360947322
  1-occ =         -0.192010339533738 | -0.542658728256044 |  0.234955215904052
  1-occ =         -0.192010339533739 | -0.542658728256045 |  0.234955215904051
  1-occ =         -0.192010339533738 | -0.542658728256045 |  0.234955215904051
  Roothaan mo_energy =
[-15.65464308  -0.96245768   0.14816412   0.68082097   0.68082097
   1.33810334   2.46241706   2.46241706   0.68082097   2.46241706
   0.68082097   2.46241706   0.68082097   2.46241706  -0.19201034
   0.16822022   1.10273039  -0.19201034   0.16822022   1.10273039
  -0.19201034   0.16822022   1.10273039]
  alpha mo_energy =
[-15.60668878  -1.13185237   0.1432881    0.66020991   0.66020991
   1.31206467   2.40705957   2.40705957   0.66020991   2.40705957
   0.66020991   2.40705957   0.66020991   2.40705957  -0.54265873
   0.15781861   1.05111098  -0.54265873   0.15781861   1.05111098
  -0.54265873   0.15781861   1.05111098]
  beta  mo_energy =
[-15.51887121  -0.71456747   0.16427936   0.72437413   0.72437413
   1.42022724   2.58549578   2.58549578   0.72437413   2.58549578
   0.72437413   2.58549578   0.72437413   2.58549578   0.23495522
   0.17915627   1.206244     0.23495522   0.17915627   1.206244
   0.23495522   0.17915627   1.206244  ]
E1 = -73.91759605362591  Ecoul = 19.52793441482802
cycle= 3 E= -54.3896616387979  delta_E= -0.00453  |g|= 0.024  |ddm|= 0.0983
    CPU time for cycle= 3      4.84 sec, wall time      0.80 sec
diis-norm(errvec)=0.0338881
diis-c [-6.51400647e-05 -1.14369369e-01 -3.51640112e-01  1.46600948e+00]
HOMO (B2u) = -0.181276200603885  LUMO (Ag) = 0.151024533281144
double occ irrep_nelec = [2, 0, 0, 0, 0, 0, 0]
single occ irrep_nelec = [0, 0, 0, 0, 1, 1, 1]
                  Roothaan           | alpha              | beta
  Highest 2-occ = -0.948118668504833 |  -1.15408664991359 | -0.744562850346901
  Lowest 0-occ =   0.151024533281144 |  0.138973541740385 |  0.162195652744538
  1-occ =         -0.181276200603885 | -0.565202338744389 |  0.205334895869447
  1-occ =         -0.181276200603885 | -0.565202338744389 |  0.205334895869447
  1-occ =         -0.181276200603885 | -0.565202338744388 |  0.205334895869447
  Roothaan mo_energy =
[-15.63547224  -0.94811867   0.15102453   0.68468647   0.68468647
   1.34898338   2.47107514   2.47107514   0.68468647   2.47107514
   0.68468647   2.47107514   0.68468647   2.47107514  -0.1812762
   0.16673963   1.1074345   -0.1812762    0.16673963   1.1074345
  -0.1812762    0.16673963   1.1074345 ]
  alpha mo_energy =
[-15.6762137   -1.15408665   0.13897354   0.65107601   0.65107601
   1.2941651    2.38391709   2.38391709   0.65107601   2.38391709
   0.65107601   2.38391709   0.65107601   2.38391709  -0.56520234
   0.15656027   1.03247745  -0.56520234   0.15656027   1.03247745
  -0.56520234   0.15656027   1.03247745]
  beta  mo_energy =
[-15.59131361  -0.74456285   0.16219565   0.71778648   0.71778648
   1.40162761   2.5584824    2.5584824    0.71778648   2.5584824
   0.71778648   2.5584824    0.71778648   2.5584824    0.2053349
   0.1759487    1.18273852   0.2053349    0.1759487    1.18273852
   0.2053349    0.1759487    1.18273852]
E1 = -73.91806405734363  Ecoul = 19.528224217051708
cycle= 4 E= -54.3898398402919  delta_E= -0.000178  |g|= 0.00425  |ddm|= 0.0452
    CPU time for cycle= 4      4.54 sec, wall time      0.79 sec
diis-norm(errvec)=0.00601426
diis-c [-8.10704915e-06 -2.69345984e-02 -1.17183853e-01  4.41384806e-01
  7.02733646e-01]
HOMO (B2u) = -0.181519723976825  LUMO (Ag) = 0.150985096696426
double occ irrep_nelec = [2, 0, 0, 0, 0, 0, 0]
single occ irrep_nelec = [0, 0, 0, 0, 1, 1, 1]
                  Roothaan           | alpha              | beta
  Highest 2-occ = -0.948347781939462 |  -1.15252629024369 | -0.741608397463778
  Lowest 0-occ =   0.150985096696426 |  0.139736809314819 |  0.162589236752619
  1-occ =         -0.181519723976826 | -0.566457369544001 |  0.205572647667197
  1-occ =         -0.181519723976825 |    -0.566457369544 |  0.205572647667197
  1-occ =         -0.181519723976826 |    -0.566457369544 |  0.205572647667197
  Roothaan mo_energy =
[-15.63681765  -0.94834778   0.1509851    0.68460203   0.68460203
   1.3486092    2.4706336    2.4706336    0.68460203   2.4706336
   0.68460203   2.4706336    0.68460203   2.4706336   -0.18151972
   0.16652903   1.10700898  -0.18151972   0.16652903   1.10700898
  -0.18151972   0.16652903   1.10700898]
  alpha mo_energy =
[-15.67687112  -1.15252629   0.13973681   0.65190854   0.65190854
   1.2955223    2.38394834   2.38394834   0.65190854   2.38394834
   0.65190854   2.38394834   0.65190854   2.38394834  -0.56645737
   0.15659558   1.03213529  -0.56645737   0.15659558   1.03213529
  -0.56645737   0.15659558   1.03213529]
  beta  mo_energy =
[-15.5912593   -0.7416084    0.16258924   0.71803659   0.71803659
   1.40336883   2.55937783   2.55937783   0.71803659   2.55937783
   0.71803659   2.55937783   0.71803659   2.55937783   0.20557265
   0.17685446   1.18324136   0.20557265   0.17685446   1.18324136
   0.20557265   0.17685446   1.18324136]
E1 = -73.90585105100669  Ecoul = 19.515980449682903
cycle= 5 E= -54.3898706013238  delta_E= -3.08e-05  |g|= 0.000327  |ddm|= 0.00481
    CPU time for cycle= 5      4.59 sec, wall time      0.80 sec
diis-norm(errvec)=0.000462906
diis-c [-6.73023303e-08  2.95172700e-03  1.11784343e-02 -3.96515582e-02
 -9.84875334e-02  1.12400893e+00]
HOMO (B1u) = -0.181948704113406  LUMO (Ag) = 0.150841400304141
double occ irrep_nelec = [2, 0, 0, 0, 0, 0, 0]
single occ irrep_nelec = [0, 0, 0, 0, 1, 1, 1]
                  Roothaan           | alpha              | beta
  Highest 2-occ = -0.948704513681437 |  -1.15379218463506 | -0.743399988564038
  Lowest 0-occ =   0.150841400304141 |  0.139329702148398 |  0.162406084156414
  1-occ =         -0.181948704113406 | -0.567488086829201 |  0.203769902912329
  1-occ =         -0.181948704113406 | -0.567488086829201 |  0.203769902912329
  1-occ =         -0.181948704113408 | -0.567488086829202 |  0.203769902912329
  Roothaan mo_energy =
[-15.63730964  -0.94870451   0.1508414    0.68434407   0.68434407
   1.34822375   2.47014865   2.47014865   0.68434407   2.47014865
   0.68434407   2.47014865   0.68434407   2.47014865  -0.1819487
   0.16662637   1.10647637  -0.1819487    0.16662637   1.10647637
  -0.1819487    0.16662637   1.10647637]
  alpha mo_energy =
[-15.67986068  -1.15379218   0.1393297    0.65124973   0.65124973
   1.29447456   2.38270848   2.38270848   0.65124973   2.38270848
   0.65124973   2.38270848   0.65124973   2.38270848  -0.56748809
   0.15646994   1.03112428  -0.56748809   0.15646994   1.03112428
  -0.56748809   0.15646994   1.03112428]
  beta  mo_energy =
[-15.59437308  -0.74339999   0.16240608   0.71753487   0.71753487
   1.40215329   2.55780234   2.55780234   0.71753487   2.55780234
   0.71753487   2.55780234   0.71753487   2.55780234   0.2037699
   0.17680737   1.18201218   0.2037699    0.17680737   1.18201218
   0.2037699    0.17680737   1.18201218]
E1 = -73.90487115678995  Ecoul = 19.515000439383016
cycle= 6 E= -54.3898707174069  delta_E= -1.16e-07  |g|= 8.53e-05  |ddm|= 0.000392
    CPU time for cycle= 6      4.54 sec, wall time      0.71 sec
diis-norm(errvec)=0.000120584
diis-c [-6.33210214e-12  1.09776845e-04  5.79039983e-04 -3.35845961e-03
  2.75577718e-02 -1.66858051e-01  1.14196992e+00]
HOMO (B3u) = -0.181940032387873  LUMO (Ag) = 0.150848486225087
double occ irrep_nelec = [2, 0, 0, 0, 0, 0, 0]
single occ irrep_nelec = [0, 0, 0, 0, 1, 1, 1]
                  Roothaan           | alpha              | beta
  Highest 2-occ = -0.948690418746621 |  -1.15389545763702 | -0.743548081411732
  Lowest 0-occ =   0.150848486225087 |  0.139295252776092 |  0.162390360485588
  1-occ =         -0.181940032387874 | -0.567573224250317 |  0.203642526016269
  1-occ =         -0.181940032387874 | -0.567573224250317 |  0.203642526016268
  1-occ =         -0.181940032387873 | -0.567573224250317 |  0.203642526016269
  Roothaan mo_energy =
[-15.63729321  -0.94869042   0.15084849   0.6843512    0.6843512
   1.34823836   2.47016333   2.47016333   0.6843512    2.47016333
   0.6843512    2.47016333   0.6843512    2.47016333  -0.18194003
   0.16662283   1.10649495  -0.18194003   0.16662283   1.10649495
  -0.18194003   0.16662283   1.10649495]
  alpha mo_energy =
[-15.68009241  -1.15389546   0.13929525   0.65119246   0.65119246
   1.29438328   2.38260403   2.38260403   0.65119246   2.38260403
   0.65119246   2.38260403   0.65119246   2.38260403  -0.56757322
   0.15645975   1.03103915  -0.56757322   0.15645975   1.03103915
  -0.56757322   0.15645975   1.03103915]
  beta  mo_energy =
[-15.59461466  -0.74354808   0.16239036   0.71748945   0.71748945
   1.40204972   2.55767118   2.55767118   0.71748945   2.55767118
   0.71748945   2.55767118   0.71748945   2.55767118   0.20364253
   0.17678152   1.18191089   0.20364253   0.17678152   1.18191089
   0.20364253   0.17678152   1.18191089]
E1 = -73.9051037477301  Ecoul = 19.515233018666084
cycle= 7 E= -54.389870729064  delta_E= -1.17e-08  |g|= 3.49e-06  |ddm|= 8.97e-05
    CPU time for cycle= 7      4.51 sec, wall time      0.80 sec
diis-norm(errvec)=4.93436e-06
diis-c [-1.60560273e-15  2.11317611e-06 -3.52786131e-06  4.83318037e-05
 -1.02693595e-03  1.00158354e-02 -7.74910345e-02  1.06845522e+00]
HOMO (B1u) = -0.181938717703113  LUMO (Ag) = 0.150848955321748
double occ irrep_nelec = [2, 0, 0, 0, 0, 0, 0]
single occ irrep_nelec = [0, 0, 0, 0, 1, 1, 1]
                  Roothaan           | alpha              | beta
  Highest 2-occ = -0.948689172142063 |  -1.15386989098611 | -0.743511223915687
  Lowest 0-occ =   0.150848955321748 |  0.139303166516515 |  0.162394199458776
  1-occ =         -0.181938717703113 | -0.567556206843765 |  0.203676459852338
  1-occ =         -0.181938717703113 | -0.567556206843765 |  0.203676459852338
  1-occ =         -0.181938717703113 | -0.567556206843764 |  0.203676459852337
  Roothaan mo_energy =
[-15.63729143  -0.94868917   0.15084896   0.68435191   0.68435191
   1.3482396    2.47016471   2.47016471   0.68435191   2.47016471
   0.68435191   2.47016471   0.68435191   2.47016471  -0.18193872
   0.16662252   1.10649636  -0.18193872   0.16662252   1.10649636
  -0.18193872   0.16662252   1.10649636]
  alpha mo_energy =
[-15.68003467  -1.15386989   0.13930317   0.65120475   0.65120475
   1.2944037    2.3826264    2.3826264    0.65120475   2.3826264
   0.65120475   2.3826264    0.65120475   2.3826264   -0.56755621
   0.15646191   1.03105684  -0.56755621   0.15646191   1.03105684
  -0.56755621   0.15646191   1.03105684]
  beta  mo_energy =
[-15.59455331  -0.74351122   0.1623942    0.71749806   0.71749806
   1.40207347   2.55770064   2.55770064   0.71749806   2.55770064
   0.71749806   2.55770064   0.71749806   2.55770064   0.20367646
   0.17678294   1.18193403   0.20367646   0.17678294   1.18193403
   0.20367646   0.17678294   1.18193403]
E1 = -73.90511389938428  Ecoul = 19.515243170298014
cycle= 8 E= -54.3898707290863  delta_E= -2.22e-11  |g|= 2.45e-08  |ddm|= 4.26e-06
    CPU time for cycle= 8      4.78 sec, wall time      0.80 sec
diis-norm(errvec)=3.46719e-08
Linear dependence found in DIIS error vectors.
diis-c [-1.15470637e-15  9.84131691e-07 -1.48576210e-06  2.19706332e-05
 -4.74909230e-04  4.65396425e-03 -3.59851163e-02  4.97276455e-01
  5.34508137e-01]
HOMO (B3u) = -0.181938723390786  LUMO (Ag) = 0.150848955231652
double occ irrep_nelec = [2, 0, 0, 0, 0, 0, 0]
single occ irrep_nelec = [0, 0, 0, 0, 1, 1, 1]
                  Roothaan           | alpha              | beta
  Highest 2-occ = -0.948689174137772 |  -1.15386877068746 | -0.743509602931723
  Lowest 0-occ =   0.150848955231652 |  0.139303532138318 |  0.162394374782886
  1-occ =         -0.181938723390786 | -0.567555423809783 |  0.203677945088495
  1-occ =         -0.181938723390786 | -0.567555423809783 |  0.203677945088494
  1-occ =         -0.181938723390786 | -0.567555423809781 |  0.203677945088493
  Roothaan mo_energy =
[-15.63729143  -0.94868917   0.15084896   0.68435191   0.68435191
   1.34823959   2.47016471   2.47016471   0.68435191   2.47016471
   0.68435191   2.47016471   0.68435191   2.47016471  -0.18193872
   0.16662252   1.10649636  -0.18193872   0.16662252   1.10649636
  -0.18193872   0.16662252   1.10649636]
  alpha mo_energy =
[-15.68003221  -1.15386877   0.13930353   0.65120532   0.65120532
   1.29440463   2.38262742   2.38262742   0.65120532   2.38262742
   0.65120532   2.38262742   0.65120532   2.38262742  -0.56755542
   0.15646201   1.03105766  -0.56755542   0.15646201   1.03105766
  -0.56755542   0.15646201   1.03105766]
  beta  mo_energy =
[-15.59455071  -0.7435096    0.16239437   0.71749849   0.71749849
   1.40207455   2.55770198   2.55770198   0.71749849   2.55770198
   0.71749849   2.55770198   0.71749849   2.55770198   0.20367795
   0.17678304   1.18193506   0.20367795   0.17678304   1.18193506
   0.20367795   0.17678304   1.18193506]
E1 = -73.90511394918175  Ecoul = 19.515243220095478
cycle= 9 E= -54.3898707290863  delta_E= -1.42e-14  |g|= 1.17e-08  |ddm|= 1.21e-08
    CPU time for cycle= 9      4.61 sec, wall time      0.70 sec
diis-norm(errvec)=1.65044e-08
Linear dependence found in DIIS error vectors.
diis-c [-3.72119958e-16  3.51917183e-01 -4.06057816e-06  3.15642908e-05
 -4.36766105e-04  3.79376095e-03 -2.87247276e-02  3.21477533e-01
  3.51945512e-01]
HOMO (B1u) = -0.181938717722063  LUMO (Ag) = 0.150848957800896
double occ irrep_nelec = [2, 0, 0, 0, 0, 0, 0]
single occ irrep_nelec = [0, 0, 0, 0, 1, 1, 1]
                  Roothaan           | alpha              | beta
  Highest 2-occ = -0.948689167650748 |  -1.15386876558735 | -0.743509596380573
  Lowest 0-occ =   0.150848957800896 |  0.139303533328167 |  0.162394375453706
  1-occ =         -0.181938717722063 | -0.567555419833467 |   0.20367795647791
  1-occ =         -0.181938717722063 | -0.567555419833467 |  0.203677956477909
  1-occ =         -0.181938717722063 | -0.567555419833467 |  0.203677956477908
  Roothaan mo_energy =
[-15.63729142  -0.94868917   0.15084896   0.68435191   0.68435191
   1.3482396    2.47016472   2.47016472   0.68435191   2.47016472
   0.68435191   2.47016472   0.68435191   2.47016472  -0.18193872
   0.16662252   1.10649637  -0.18193872   0.16662252   1.10649637
  -0.18193872   0.16662252   1.10649637]
  alpha mo_energy =
[-15.68003219  -1.15386877   0.13930353   0.65120532   0.65120532
   1.29440463   2.38262742   2.38262742   0.65120532   2.38262742
   0.65120532   2.38262742   0.65120532   2.38262742  -0.56755542
   0.15646201   1.03105766  -0.56755542   0.15646201   1.03105766
  -0.56755542   0.15646201   1.03105766]
  beta  mo_energy =
[-15.59455069  -0.7435096    0.16239438   0.71749849   0.71749849
   1.40207455   2.55770198   2.55770198   0.71749849   2.55770198
   0.71749849   2.55770198   0.71749849   2.55770198   0.20367796
   0.17678304   1.18193506   0.20367796   0.17678304   1.18193506
   0.20367796   0.17678304   1.18193506]
E1 = -73.90511402188156  Ecoul = 19.515243292795287
cycle= 10 E= -54.3898707290863  delta_E= 7.11e-15  |g|= 1.34e-08  |ddm|= 2.78e-08
    CPU time for cycle= 10      4.58 sec, wall time      0.80 sec
diis-norm(errvec)=1.89701e-08
Linear dependence found in DIIS error vectors.
diis-c [-4.67990619e-17  3.27801147e-01  3.28387059e-01  7.32444358e-07
 -1.44933533e-05  1.41654986e-04 -1.03851236e-03  1.36400777e-02
  3.31082334e-01]
HOMO (B1u) = -0.181938727829613  LUMO (Ag) = 0.150848955297108
double occ irrep_nelec = [2, 0, 0, 0, 0, 0, 0]
single occ irrep_nelec = [0, 0, 0, 0, 1, 1, 1]
                  Roothaan           | alpha              | beta
  Highest 2-occ = -0.948689175496477 |  -1.15386875792505 | -0.743509584970124
  Lowest 0-occ =   0.150848955297108 |  0.139303535828197 |   0.16239437658532
  1-occ =         -0.181938727829613 | -0.567555414173852 |  0.203677964594235
  1-occ =         -0.181938727829613 | -0.567555414173852 |  0.203677964594236
  1-occ =         -0.181938727829614 | -0.567555414173852 |  0.203677964594234
  Roothaan mo_energy =
[-15.63729143  -0.94868918   0.15084896   0.68435191   0.68435191
   1.34823959   2.47016471   2.47016471   0.68435191   2.47016471
   0.68435191   2.47016471   0.68435191   2.47016471  -0.18193873
   0.16662253   1.10649636  -0.18193873   0.16662253   1.10649636
  -0.18193873   0.16662253   1.10649636]
  alpha mo_energy =
[-15.68003218  -1.15386876   0.13930354   0.65120533   0.65120533
   1.29440464   2.38262743   2.38262743   0.65120533   2.38262743
   0.65120533   2.38262743   0.65120533   2.38262743  -0.56755541
   0.15646201   1.03105767  -0.56755541   0.15646201   1.03105767
  -0.56755541   0.15646201   1.03105767]
  beta  mo_energy =
[-15.59455067  -0.74350958   0.16239438   0.71749849   0.71749849
   1.40207456   2.55770199   2.55770199   0.71749849   2.55770199
   0.71749849   2.55770199   0.71749849   2.55770199   0.20367796
   0.17678304   1.18193507   0.20367796   0.17678304   1.18193507
   0.20367796   0.17678304   1.18193507]
E1 = -73.9051139944612  Ecoul = 19.515243265374906
cycle= 11 E= -54.3898707290863  delta_E= -2.84e-14  |g|= 2.14e-10  |ddm|= 1.63e-08
    CPU time for cycle= 11      4.37 sec, wall time      0.70 sec
diis-norm(errvec)=3.03089e-10
Linear dependence found in DIIS error vectors.
diis-c [-2.95794536e-17  2.46853641e-01  2.47144695e-01  2.44360345e-01
  1.59802825e-06  3.63382623e-05 -4.05837903e-04  1.21242092e-02
  2.49885012e-01]
HOMO (B2u) = -0.181938728707192  LUMO (Ag) = 0.150848955214536
double occ irrep_nelec = [2, 0, 0, 0, 0, 0, 0]
single occ irrep_nelec = [0, 0, 0, 0, 1, 1, 1]
                  Roothaan           | alpha              | beta
  Highest 2-occ = -0.948689176263472 |  -1.15386876126766 | -0.743509589997824
  Lowest 0-occ =   0.150848955214536 |  0.139303534529919 |  0.162394375992379
  1-occ =         -0.181938728707192 | -0.567555416225399 |  0.203677960230663
  1-occ =         -0.181938728707192 | -0.567555416225399 |  0.203677960230663
  1-occ =         -0.181938728707193 | -0.567555416225399 |  0.203677960230662
  Roothaan mo_energy =
[-15.63729143  -0.94868918   0.15084896   0.68435191   0.68435191
   1.34823959   2.47016471   2.47016471   0.68435191   2.47016471
   0.68435191   2.47016471   0.68435191   2.47016471  -0.18193873
   0.16662253   1.10649636  -0.18193873   0.16662253   1.10649636
  -0.18193873   0.16662253   1.10649636]
  alpha mo_energy =
[-15.68003218  -1.15386876   0.13930353   0.65120532   0.65120532
   1.29440463   2.38262743   2.38262743   0.65120532   2.38262743
   0.65120532   2.38262743   0.65120532   2.38262743  -0.56755542
   0.15646201   1.03105766  -0.56755542   0.15646201   1.03105766
  -0.56755542   0.15646201   1.03105766]
  beta  mo_energy =
[-15.59455068  -0.74350959   0.16239438   0.71749849   0.71749849
   1.40207455   2.55770199   2.55770199   0.71749849   2.55770199
   0.71749849   2.55770199   0.71749849   2.55770199   0.20367796
   0.17678304   1.18193507   0.20367796   0.17678304   1.18193507
   0.20367796   0.17678304   1.18193507]
E1 = -73.90511399541998  Ecoul = 19.51524326633371
cycle= 12 E= -54.3898707290863  delta_E= 2.84e-14  |g|= 6.01e-10  |ddm|= 9e-10
    CPU time for cycle= 12      4.49 sec, wall time      0.80 sec
diis-norm(errvec)=8.50529e-10
Linear dependence found in DIIS error vectors.
diis-c [-7.98748434e-16  1.98084979e-01  1.98236888e-01  1.95902794e-01
  1.95594602e-01  4.37775352e-05 -4.44404564e-04  1.18560054e-02
  2.00725358e-01]
HOMO (B2u) = -0.181938728392592  LUMO (Ag) = 0.150848955245955
double occ irrep_nelec = [2, 0, 0, 0, 0, 0, 0]
single occ irrep_nelec = [0, 0, 0, 0, 1, 1, 1]
                  Roothaan           | alpha              | beta
  Highest 2-occ = -0.948689175920565 |  -1.15386876120176 |  -0.74350958997414
  Lowest 0-occ =   0.150848955245955 |  0.139303534507624 |  0.162394375991161
  1-occ =         -0.181938728392592 | -0.567555416142114 |  0.203677960317974
  1-occ =         -0.181938728392592 | -0.567555416142112 |  0.203677960317974
  1-occ =         -0.181938728392593 | -0.567555416142112 |  0.203677960317974
  Roothaan mo_energy =
[-15.63729143  -0.94868918   0.15084896   0.68435191   0.68435191
   1.34823959   2.47016471   2.47016471   0.68435191   2.47016471
   0.68435191   2.47016471   0.68435191   2.47016471  -0.18193873
   0.16662253   1.10649636  -0.18193873   0.16662253   1.10649636
  -0.18193873   0.16662253   1.10649636]
  alpha mo_energy =
[-15.68003218  -1.15386876   0.13930353   0.65120532   0.65120532
   1.29440463   2.38262743   2.38262743   0.65120532   2.38262743
   0.65120532   2.38262743   0.65120532   2.38262743  -0.56755542
   0.15646201   1.03105766  -0.56755542   0.15646201   1.03105766
  -0.56755542   0.15646201   1.03105766]
  beta  mo_energy =
[-15.59455068  -0.74350959   0.16239438   0.71749849   0.71749849
   1.40207455   2.55770199   2.55770199   0.71749849   2.55770199
   0.71749849   2.55770199   0.71749849   2.55770199   0.20367796
   0.17678304   1.18193507   0.20367796   0.17678304   1.18193507
   0.20367796   0.17678304   1.18193507]
E1 = -73.9051139947756  Ecoul = 19.515243265689314
cycle= 13 E= -54.3898707290863  delta_E= -2.13e-14  |g|= 2.73e-10  |ddm|= 8.51e-10
    CPU time for cycle= 13      4.69 sec, wall time      0.79 sec
diis-norm(errvec)=3.85967e-10
Linear dependence found in DIIS error vectors.
diis-c [-1.18194921e-16  1.66454150e-01  1.67555727e-01  1.66888115e-01
  1.66844132e-01  1.66859215e-01 -1.13645573e-05 -5.90084206e-04
  1.66000110e-01]
HOMO (B2u) = -0.181938729088013  LUMO (Ag) = 0.15084895520284
double occ irrep_nelec = [2, 0, 0, 0, 0, 0, 0]
single occ irrep_nelec = [0, 0, 0, 0, 1, 1, 1]
                  Roothaan           | alpha              | beta
  Highest 2-occ = -0.948689176481531 |  -1.15386876123589 | -0.743509589996305
  Lowest 0-occ =    0.15084895520284 |  0.139303534504679 |  0.162394375998563
  1-occ =         -0.181938729088013 | -0.567555416213962 |  0.203677960336977
  1-occ =         -0.181938729088013 |  -0.56755541621396 |  0.203677960336978
  1-occ =         -0.181938729088013 | -0.567555416213961 |  0.203677960336977
  Roothaan mo_energy =
[-15.63729143  -0.94868918   0.15084896   0.68435191   0.68435191
   1.34823959   2.47016471   2.47016471   0.68435191   2.47016471
   0.68435191   2.47016471   0.68435191   2.47016471  -0.18193873
   0.16662253   1.10649636  -0.18193873   0.16662253   1.10649636
  -0.18193873   0.16662253   1.10649636]
  alpha mo_energy =
[-15.68003218  -1.15386876   0.13930353   0.65120532   0.65120532
   1.29440463   2.38262743   2.38262743   0.65120532   2.38262743
   0.65120532   2.38262743   0.65120532   2.38262743  -0.56755542
   0.15646201   1.03105766  -0.56755542   0.15646201   1.03105766
  -0.56755542   0.15646201   1.03105766]
  beta  mo_energy =
[-15.59455068  -0.74350959   0.16239438   0.71749849   0.71749849
   1.40207455   2.55770199   2.55770199   0.71749849   2.55770199
   0.71749849   2.55770199   0.71749849   2.55770199   0.20367796
   0.17678304   1.18193507   0.20367796   0.17678304   1.18193507
   0.20367796   0.17678304   1.18193507]
E1 = -73.90511399657382  Ecoul = 19.515243267487545
cycle= 14 E= -54.3898707290863  delta_E= 2.13e-14  |g|= 8.34e-10  |ddm|= 4.83e-10
    CPU time for cycle= 14      5.22 sec, wall time      0.92 sec
diis-norm(errvec)=1.17976e-09
Linear dependence found in DIIS error vectors.
diis-c [ 2.41887225e-16  1.42647759e-01  1.43593113e-01  1.43072925e-01
  1.43064613e-01  1.43065161e-01  1.43075138e-01 -7.15973210e-04
  1.42197264e-01]
HOMO (B2u) = -0.181938728921861  LUMO (Ag) = 0.150848955210166
double occ irrep_nelec = [2, 0, 0, 0, 0, 0, 0]
single occ irrep_nelec = [0, 0, 0, 0, 1, 1, 1]
                  Roothaan           | alpha              | beta
  Highest 2-occ = -0.948689176357134 |  -1.15386876107325 | -0.743509589784464
  Lowest 0-occ =   0.150848955210166 |  0.139303534531592 |   0.16239437601175
  1-occ =         -0.181938728921861 |  -0.56755541608139 |  0.203677960531749
  1-occ =         -0.181938728921861 | -0.567555416081389 |  0.203677960531749
  1-occ =         -0.181938728921861 | -0.567555416081389 |  0.203677960531749
  Roothaan mo_energy =
[-15.63729143  -0.94868918   0.15084896   0.68435191   0.68435191
   1.34823959   2.47016471   2.47016471   0.68435191   2.47016471
   0.68435191   2.47016471   0.68435191   2.47016471  -0.18193873
   0.16662253   1.10649636  -0.18193873   0.16662253   1.10649636
  -0.18193873   0.16662253   1.10649636]
  alpha mo_energy =
[-15.68003218  -1.15386876   0.13930353   0.65120532   0.65120532
   1.29440464   2.38262743   2.38262743   0.65120532   2.38262743
   0.65120532   2.38262743   0.65120532   2.38262743  -0.56755542
   0.15646201   1.03105766  -0.56755542   0.15646201   1.03105766
  -0.56755542   0.15646201   1.03105766]
  beta  mo_energy =
[-15.59455068  -0.74350959   0.16239438   0.71749849   0.71749849
   1.40207455   2.55770199   2.55770199   0.71749849   2.55770199
   0.71749849   2.55770199   0.71749849   2.55770199   0.20367796
   0.17678304   1.18193507   0.20367796   0.17678304   1.18193507
   0.20367796   0.17678304   1.18193507]
E1 = -73.90511399621145  Ecoul = 19.51524326712514
cycle= 15 E= -54.3898707290863  delta_E= -4.26e-14  |g|= 6.95e-10  |ddm|= 1.25e-10
    CPU time for cycle= 15      4.78 sec, wall time      0.78 sec
diis-norm(errvec)=9.83114e-10
Linear dependence found in DIIS error vectors.
diis-c [-3.91945375e-16  1.25000000e-01  1.25000000e-01  1.25000000e-01
  1.25000000e-01  1.25000000e-01  1.25000000e-01  1.25000000e-01
  1.25000000e-01]
HOMO (B2u) = -0.181938729730623  LUMO (Ag) = 0.150848955045024
double occ irrep_nelec = [2, 0, 0, 0, 0, 0, 0]
single occ irrep_nelec = [0, 0, 0, 0, 1, 1, 1]
                  Roothaan           | alpha              | beta
  Highest 2-occ =  -0.94868917712189 |  -1.15386876112493 | -0.743509589811743
  Lowest 0-occ =   0.150848955045024 |  0.139303534527887 |  0.162394376008228
  1-occ =         -0.181938729730623 |  -0.56755541610461 |  0.203677960726697
  1-occ =         -0.181938729730623 | -0.567555416104609 |  0.203677960726697
  1-occ =         -0.181938729730623 | -0.567555416104609 |  0.203677960726697
  Roothaan mo_energy =
[-15.63729144  -0.94868918   0.15084896   0.68435191   0.68435191
   1.34823959   2.47016471   2.47016471   0.68435191   2.47016471
   0.68435191   2.47016471   0.68435191   2.47016471  -0.18193873
   0.16662253   1.10649636  -0.18193873   0.16662253   1.10649636
  -0.18193873   0.16662253   1.10649636]
  alpha mo_energy =
[-15.68003218  -1.15386876   0.13930353   0.65120532   0.65120532
   1.29440464   2.38262743   2.38262743   0.65120532   2.38262743
   0.65120532   2.38262743   0.65120532   2.38262743  -0.56755542
   0.15646201   1.03105766  -0.56755542   0.15646201   1.03105766
  -0.56755542   0.15646201   1.03105766]
  beta  mo_energy =
[-15.59455068  -0.74350959   0.16239438   0.71749849   0.71749849
   1.40207455   2.55770199   2.55770199   0.71749849   2.55770199
   0.71749849   2.55770199   0.71749849   2.55770199   0.20367796
   0.17678304   1.18193507   0.20367796   0.17678304   1.18193507
   0.20367796   0.17678304   1.18193507]
E1 = -73.9051140012913  Ecoul = 19.51524327220499
cycle= 16 E= -54.3898707290863  delta_E= 7.11e-15  |g|= 2.08e-09  |ddm|= 1.44e-09
    CPU time for cycle= 16      4.79 sec, wall time      0.80 sec
diis-norm(errvec)=2.93567e-09
Linear dependence found in DIIS error vectors.
diis-c [-2.89052492e-16  1.25000000e-01  1.25000000e-01  1.25000000e-01
  1.25000000e-01  1.25000000e-01  1.25000000e-01  1.25000000e-01
  1.25000000e-01]
HOMO (B2u) = -0.18193872803606  LUMO (Ag) = 0.15084895528298
double occ irrep_nelec = [2, 0, 0, 0, 0, 0, 0]
single occ irrep_nelec = [0, 0, 0, 0, 1, 1, 1]
                  Roothaan           | alpha              | beta
  Highest 2-occ = -0.948689175633639 |  -1.15386876062206 | -0.743509589185089
  Lowest 0-occ =    0.15084895528298 |  0.139303534660766 |  0.162394376067743
  1-occ =          -0.18193872803606 | -0.567555415663375 |  0.203677961027139
  1-occ =          -0.18193872803606 | -0.567555415663375 |  0.203677961027138
  1-occ =         -0.181938728036061 | -0.567555415663374 |  0.203677961027139
  Roothaan mo_energy =
[-15.63729143  -0.94868918   0.15084896   0.68435191   0.68435191
   1.34823959   2.47016471   2.47016471   0.68435191   2.47016471
   0.68435191   2.47016471   0.68435191   2.47016471  -0.18193873
   0.16662253   1.10649636  -0.18193873   0.16662253   1.10649636
  -0.18193873   0.16662253   1.10649636]
  alpha mo_energy =
[-15.68003218  -1.15386876   0.13930353   0.65120532   0.65120532
   1.29440464   2.38262743   2.38262743   0.65120532   2.38262743
   0.65120532   2.38262743   0.65120532   2.38262743  -0.56755542
   0.15646201   1.03105766  -0.56755542   0.15646201   1.03105766
  -0.56755542   0.15646201   1.03105766]
  beta  mo_energy =
[-15.59455068  -0.74350959   0.16239438   0.71749849   0.71749849
   1.40207456   2.55770199   2.55770199   0.71749849   2.55770199
   0.71749849   2.55770199   0.71749849   2.55770199   0.20367796
   0.17678304   1.18193507   0.20367796   0.17678304   1.18193507
   0.20367796   0.17678304   1.18193507]
E1 = -73.90511399318342  Ecoul = 19.515243264097137
cycle= 17 E= -54.3898707290863  delta_E= 2.13e-14  |g|= 3.83e-10  |ddm|= 1.86e-09
    CPU time for cycle= 17      4.77 sec, wall time      0.80 sec
diis-norm(errvec)=5.41525e-10
Linear dependence found in DIIS error vectors.
diis-c [-2.89052492e-16  1.25000000e-01  1.25000000e-01  1.25000000e-01
  1.25000000e-01  1.25000000e-01  1.25000000e-01  1.25000000e-01
  1.25000000e-01]
HOMO (B2u) = -0.181938727301755  LUMO (Ag) = 0.150848955387308
double occ irrep_nelec = [2, 0, 0, 0, 0, 0, 0]
single occ irrep_nelec = [0, 0, 0, 0, 1, 1, 1]
                  Roothaan           | alpha              | beta
  Highest 2-occ = -0.948689174985007 |  -1.15386876137403 | -0.743509590215792
  Lowest 0-occ =   0.150848955387308 |  0.139303534480376 |  0.162394375970742
  1-occ =         -0.181938727301755 |  -0.56755541634117 |  0.203677959808207
  1-occ =         -0.181938727301755 |  -0.56755541634117 |  0.203677959808207
  1-occ =         -0.181938727301755 |  -0.56755541634117 |  0.203677959808207
  Roothaan mo_energy =
[-15.63729143  -0.94868917   0.15084896   0.68435191   0.68435191
   1.3482396    2.47016471   2.47016471   0.68435191   2.47016471
   0.68435191   2.47016471   0.68435191   2.47016471  -0.18193873
   0.16662253   1.10649636  -0.18193873   0.16662253   1.10649636
  -0.18193873   0.16662253   1.10649636]
  alpha mo_energy =
[-15.68003218  -1.15386876   0.13930353   0.65120532   0.65120532
   1.29440463   2.38262743   2.38262743   0.65120532   2.38262743
   0.65120532   2.38262743   0.65120532   2.38262743  -0.56755542
   0.15646201   1.03105766  -0.56755542   0.15646201   1.03105766
  -0.56755542   0.15646201   1.03105766]
  beta  mo_energy =
[-15.59455068  -0.74350959   0.16239438   0.71749849   0.71749849
   1.40207455   2.55770199   2.55770199   0.71749849   2.55770199
   0.71749849   2.55770199   0.71749849   2.55770199   0.20367796
   0.17678304   1.18193507   0.20367796   0.17678304   1.18193507
   0.20367796   0.17678304   1.18193507]
E1 = -73.90511398965484  Ecoul = 19.51524326056854
cycle= 18 E= -54.3898707290863  delta_E= -1.42e-14  |g|= 1.39e-09  |ddm|= 8.11e-10
    CPU time for cycle= 18      4.82 sec, wall time      0.80 sec
diis-norm(errvec)=1.96071e-09
Linear dependence found in DIIS error vectors.
diis-c [-2.89052492e-16  1.25000000e-01  1.25000000e-01  1.25000000e-01
  1.25000000e-01  1.25000000e-01  1.25000000e-01  1.25000000e-01
  1.25000000e-01]
HOMO (B2u) = -0.181938727927684  LUMO (Ag) = 0.15084895525712
double occ irrep_nelec = [2, 0, 0, 0, 0, 0, 0]
single occ irrep_nelec = [0, 0, 0, 0, 1, 1, 1]
                  Roothaan           | alpha              | beta
  Highest 2-occ = -0.948689175576792 |  -1.15386876171852 | -0.743509590645212
  Lowest 0-occ =    0.15084895525712 |  0.139303534401528 |  0.162394375928979
  1-occ =         -0.181938727927685 | -0.567555416637146 |  0.203677959536699
  1-occ =         -0.181938727927684 | -0.567555416637145 |    0.2036779595367
  1-occ =         -0.181938727927685 | -0.567555416637144 |    0.2036779595367
  Roothaan mo_energy =
[-15.63729143  -0.94868918   0.15084896   0.68435191   0.68435191
   1.34823959   2.47016471   2.47016471   0.68435191   2.47016471
   0.68435191   2.47016471   0.68435191   2.47016471  -0.18193873
   0.16662253   1.10649636  -0.18193873   0.16662253   1.10649636
  -0.18193873   0.16662253   1.10649636]
  alpha mo_energy =
[-15.68003218  -1.15386876   0.13930353   0.65120532   0.65120532
   1.29440463   2.38262743   2.38262743   0.65120532   2.38262743
   0.65120532   2.38262743   0.65120532   2.38262743  -0.56755542
   0.15646201   1.03105766  -0.56755542   0.15646201   1.03105766
  -0.56755542   0.15646201   1.03105766]
  beta  mo_energy =
[-15.59455068  -0.74350959   0.16239438   0.71749849   0.71749849
   1.40207455   2.55770199   2.55770199   0.71749849   2.55770199
   0.71749849   2.55770199   0.71749849   2.55770199   0.20367796
   0.17678304   1.18193507   0.20367796   0.17678304   1.18193507
   0.20367796   0.17678304   1.18193507]
E1 = -73.90511399365607  Ecoul = 19.515243264569786
cycle= 19 E= -54.3898707290863  delta_E= 1.42e-14  |g|= 1.43e-10  |ddm|= 1.15e-09
    CPU time for cycle= 19      4.95 sec, wall time      0.81 sec
diis-norm(errvec)=2.02467e-10
Linear dependence found in DIIS error vectors.
diis-c [-2.89052492e-16  1.25000000e-01  1.25000000e-01  1.25000000e-01
  1.25000000e-01  1.25000000e-01  1.25000000e-01  1.25000000e-01
  1.25000000e-01]
HOMO (B2u) = -0.181938727941985  LUMO (Ag) = 0.150848955254679
double occ irrep_nelec = [2, 0, 0, 0, 0, 0, 0]
single occ irrep_nelec = [0, 0, 0, 0, 1, 1, 1]
                  Roothaan           | alpha              | beta
  Highest 2-occ = -0.948689175589653 |  -1.15386876133973 | -0.743509590131518
  Lowest 0-occ =   0.150848955254679 |  0.139303534503442 |  0.162394375979806
  1-occ =         -0.181938727941986 | -0.567555416289707 |  0.203677960075724
  1-occ =         -0.181938727941985 | -0.567555416289707 |  0.203677960075723
  1-occ =         -0.181938727941986 | -0.567555416289707 |  0.203677960075723
  Roothaan mo_energy =
[-15.63729143  -0.94868918   0.15084896   0.68435191   0.68435191
   1.34823959   2.47016471   2.47016471   0.68435191   2.47016471
   0.68435191   2.47016471   0.68435191   2.47016471  -0.18193873
   0.16662253   1.10649636  -0.18193873   0.16662253   1.10649636
  -0.18193873   0.16662253   1.10649636]
  alpha mo_energy =
[-15.68003218  -1.15386876   0.13930353   0.65120532   0.65120532
   1.29440463   2.38262743   2.38262743   0.65120532   2.38262743
   0.65120532   2.38262743   0.65120532   2.38262743  -0.56755542
   0.15646201   1.03105766  -0.56755542   0.15646201   1.03105766
  -0.56755542   0.15646201   1.03105766]
  beta  mo_energy =
[-15.59455068  -0.74350959   0.16239438   0.71749849   0.71749849
   1.40207455   2.55770199   2.55770199   0.71749849   2.55770199
   0.71749849   2.55770199   0.71749849   2.55770199   0.20367796
   0.17678304   1.18193507   0.20367796   0.17678304   1.18193507
   0.20367796   0.17678304   1.18193507]
E1 = -73.90511399373543  Ecoul = 19.51524326464909
cycle= 20 E= -54.3898707290863  delta_E= -5.68e-14  |g|= 1.23e-10  |ddm|= 2.07e-11
    CPU time for cycle= 20      5.00 sec, wall time      0.80 sec
diis-norm(errvec)=1.74333e-10
Linear dependence found in DIIS error vectors.
diis-c [-2.89052492e-16  1.25000000e-01  1.25000000e-01  1.25000000e-01
  1.25000000e-01  1.25000000e-01  1.25000000e-01  1.25000000e-01
  1.25000000e-01]
HOMO (B2u) = -0.18193872796466  LUMO (Ag) = 0.150848955253889
double occ irrep_nelec = [2, 0, 0, 0, 0, 0, 0]
single occ irrep_nelec = [0, 0, 0, 0, 1, 1, 1]
                  Roothaan           | alpha              | beta
  Highest 2-occ = -0.948689175607007 |  -1.15386876133225 | -0.743509590121326
  Lowest 0-occ =   0.150848955253889 |  0.139303534505262 |   0.16239437598089
  1-occ =          -0.18193872796466 | -0.567555416282978 |  0.203677960088965
  1-occ =          -0.18193872796466 | -0.567555416282977 |  0.203677960088966
  1-occ =          -0.18193872796466 | -0.567555416282977 |  0.203677960088965
  Roothaan mo_energy =
[-15.63729143  -0.94868918   0.15084896   0.68435191   0.68435191
   1.34823959   2.47016471   2.47016471   0.68435191   2.47016471
   0.68435191   2.47016471   0.68435191   2.47016471  -0.18193873
   0.16662253   1.10649636  -0.18193873   0.16662253   1.10649636
  -0.18193873   0.16662253   1.10649636]
  alpha mo_energy =
[-15.68003218  -1.15386876   0.13930353   0.65120532   0.65120532
   1.29440463   2.38262743   2.38262743   0.65120532   2.38262743
   0.65120532   2.38262743   0.65120532   2.38262743  -0.56755542
   0.15646201   1.03105766  -0.56755542   0.15646201   1.03105766
  -0.56755542   0.15646201   1.03105766]
  beta  mo_energy =
[-15.59455068  -0.74350959   0.16239438   0.71749849   0.71749849
   1.40207455   2.55770199   2.55770199   0.71749849   2.55770199
   0.71749849   2.55770199   0.71749849   2.55770199   0.20367796
   0.17678304   1.18193507   0.20367796   0.17678304   1.18193507
   0.20367796   0.17678304   1.18193507]
E1 = -73.90511399379437  Ecoul = 19.515243264708104
cycle= 21 E= -54.3898707290863  delta_E= 7.11e-14  |g|= 1.09e-10  |ddm|= 1.8e-11
    CPU time for cycle= 21      4.71 sec, wall time      0.80 sec
diis-norm(errvec)=1.54583e-10
Linear dependence found in DIIS error vectors.
diis-c [-2.89052492e-16  1.25000000e-01  1.25000000e-01  1.25000000e-01
  1.25000000e-01  1.25000000e-01  1.25000000e-01  1.25000000e-01
  1.25000000e-01]
HOMO (B2u) = -0.181938727978711  LUMO (Ag) = 0.150848955252896
double occ irrep_nelec = [2, 0, 0, 0, 0, 0, 0]
single occ irrep_nelec = [0, 0, 0, 0, 1, 1, 1]
                  Roothaan           | alpha              | beta
  Highest 2-occ = -0.948689175620062 |  -1.15386876132708 | -0.743509590113997
  Lowest 0-occ =   0.150848955252896 |  0.139303534506001 |  0.162394375981348
  1-occ =         -0.181938727978711 | -0.567555416278758 |  0.203677960097074
  1-occ =         -0.181938727978711 | -0.567555416278757 |  0.203677960097074
  1-occ =         -0.181938727978711 | -0.567555416278757 |  0.203677960097074
  Roothaan mo_energy =
[-15.63729143  -0.94868918   0.15084896   0.68435191   0.68435191
   1.34823959   2.47016471   2.47016471   0.68435191   2.47016471
   0.68435191   2.47016471   0.68435191   2.47016471  -0.18193873
   0.16662253   1.10649636  -0.18193873   0.16662253   1.10649636
  -0.18193873   0.16662253   1.10649636]
  alpha mo_energy =
[-15.68003218  -1.15386876   0.13930353   0.65120532   0.65120532
   1.29440463   2.38262743   2.38262743   0.65120532   2.38262743
   0.65120532   2.38262743   0.65120532   2.38262743  -0.56755542
   0.15646201   1.03105766  -0.56755542   0.15646201   1.03105766
  -0.56755542   0.15646201   1.03105766]
  beta  mo_energy =
[-15.59455068  -0.74350959   0.16239438   0.71749849   0.71749849
   1.40207455   2.55770199   2.55770199   0.71749849   2.55770199
   0.71749849   2.55770199   0.71749849   2.55770199   0.20367796
   0.17678304   1.18193507   0.20367796   0.17678304   1.18193507
   0.20367796   0.17678304   1.18193507]
E1 = -73.90511399383544  Ecoul = 19.51524326474916
cycle= 22 E= -54.3898707290863  delta_E= -1.42e-14  |g|= 9.38e-11  |ddm|= 1.85e-11
    CPU time for cycle= 22      4.61 sec, wall time      0.80 sec
diis-norm(errvec)=1.32683e-10
Linear dependence found in DIIS error vectors.
diis-c [-2.89052492e-16  1.25000000e-01  1.25000000e-01  1.25000000e-01
  1.25000000e-01  1.25000000e-01  1.25000000e-01  1.25000000e-01
  1.25000000e-01]
HOMO (B2u) = -0.181938728018868  LUMO (Ag) = 0.15084895524944
double occ irrep_nelec = [2, 0, 0, 0, 0, 0, 0]
single occ irrep_nelec = [0, 0, 0, 0, 1, 1, 1]
                  Roothaan           | alpha              | beta
  Highest 2-occ = -0.948689175656068 |  -1.15386876132454 | -0.743509590109267
  Lowest 0-occ =    0.15084895524944 |  0.139303534506539 |  0.162394375981495
  1-occ =         -0.181938728018868 | -0.567555416275148 |   0.20367796010722
  1-occ =         -0.181938728018868 | -0.567555416275148 |  0.203677960107219
  1-occ =         -0.181938728018868 | -0.567555416275148 |  0.203677960107219
  Roothaan mo_energy =
[-15.63729143  -0.94868918   0.15084896   0.68435191   0.68435191
   1.34823959   2.47016471   2.47016471   0.68435191   2.47016471
   0.68435191   2.47016471   0.68435191   2.47016471  -0.18193873
   0.16662253   1.10649636  -0.18193873   0.16662253   1.10649636
  -0.18193873   0.16662253   1.10649636]
  alpha mo_energy =
[-15.68003218  -1.15386876   0.13930353   0.65120532   0.65120532
   1.29440463   2.38262743   2.38262743   0.65120532   2.38262743
   0.65120532   2.38262743   0.65120532   2.38262743  -0.56755542
   0.15646201   1.03105766  -0.56755542   0.15646201   1.03105766
  -0.56755542   0.15646201   1.03105766]
  beta  mo_energy =
[-15.59455068  -0.74350959   0.16239438   0.71749849   0.71749849
   1.40207455   2.55770199   2.55770199   0.71749849   2.55770199
   0.71749849   2.55770199   0.71749849   2.55770199   0.20367796
   0.17678304   1.18193507   0.20367796   0.17678304   1.18193507
   0.20367796   0.17678304   1.18193507]
E1 = -73.90511399398028  Ecoul = 19.51524326489396
cycle= 23 E= -54.3898707290863  delta_E= -3.55e-14  |g|= 5.07e-11  |ddm|= 3.97e-11
    CPU time for cycle= 23      4.71 sec, wall time      0.79 sec
diis-norm(errvec)=7.16574e-11
Linear dependence found in DIIS error vectors.
diis-c [-2.89052492e-16  1.25000000e-01  1.25000000e-01  1.25000000e-01
  1.25000000e-01  1.25000000e-01  1.25000000e-01  1.25000000e-01
  1.25000000e-01]
HOMO (B2u) = -0.181938728051551  LUMO (Ag) = 0.150848955246658
double occ irrep_nelec = [2, 0, 0, 0, 0, 0, 0]
single occ irrep_nelec = [0, 0, 0, 0, 1, 1, 1]
                  Roothaan           | alpha              | beta
  Highest 2-occ = -0.948689175685341 |  -1.15386876131248 | -0.743509590092562
  Lowest 0-occ =   0.150848955246658 |  0.139303534508883 |  0.162394375982729
  1-occ =         -0.181938728051551 | -0.567555416262797 |  0.203677960129278
  1-occ =         -0.181938728051551 | -0.567555416262797 |  0.203677960129277
  1-occ =         -0.181938728051551 | -0.567555416262798 |  0.203677960129277
  Roothaan mo_energy =
[-15.63729143  -0.94868918   0.15084896   0.68435191   0.68435191
   1.34823959   2.47016471   2.47016471   0.68435191   2.47016471
   0.68435191   2.47016471   0.68435191   2.47016471  -0.18193873
   0.16662253   1.10649636  -0.18193873   0.16662253   1.10649636
  -0.18193873   0.16662253   1.10649636]
  alpha mo_energy =
[-15.68003218  -1.15386876   0.13930353   0.65120532   0.65120532
   1.29440463   2.38262743   2.38262743   0.65120532   2.38262743
   0.65120532   2.38262743   0.65120532   2.38262743  -0.56755542
   0.15646201   1.03105766  -0.56755542   0.15646201   1.03105766
  -0.56755542   0.15646201   1.03105766]
  beta  mo_energy =
[-15.59455068  -0.74350959   0.16239438   0.71749849   0.71749849
   1.40207455   2.55770199   2.55770199   0.71749849   2.55770199
   0.71749849   2.55770199   0.71749849   2.55770199   0.20367796
   0.17678304   1.18193507   0.20367796   0.17678304   1.18193507
   0.20367796   0.17678304   1.18193507]
E1 = -73.90511399409647  Ecoul = 19.51524326501019
cycle= 24 E= -54.3898707290863  delta_E= 4.26e-14  |g|= 2.12e-11  |ddm|= 3.26e-11
    CPU time for cycle= 24      4.58 sec, wall time      0.71 sec
diis-norm(errvec)=2.99752e-11
Linear dependence found in DIIS error vectors.
diis-c [-2.89052492e-16  1.25000000e-01  1.25000000e-01  1.25000000e-01
  1.25000000e-01  1.25000000e-01  1.25000000e-01  1.25000000e-01
  1.25000000e-01]
HOMO (B2u) = -0.181938728167236  LUMO (Ag) = 0.15084895523203
double occ irrep_nelec = [2, 0, 0, 0, 0, 0, 0]
single occ irrep_nelec = [0, 0, 0, 0, 1, 1, 1]
                  Roothaan           | alpha              | beta
  Highest 2-occ =  -0.94868917578377 |  -1.15386876130358 | -0.743509590078433
  Lowest 0-occ =    0.15084895523203 |  0.139303534510376 |   0.16239437598407
  1-occ =         -0.181938728167236 |   -0.5675554162529 |  0.203677960169108
  1-occ =         -0.181938728167236 | -0.567555416252898 |  0.203677960169108
  1-occ =         -0.181938728167236 | -0.567555416252898 |  0.203677960169109
  Roothaan mo_energy =
[-15.63729143  -0.94868918   0.15084896   0.68435191   0.68435191
   1.34823959   2.47016471   2.47016471   0.68435191   2.47016471
   0.68435191   2.47016471   0.68435191   2.47016471  -0.18193873
   0.16662253   1.10649636  -0.18193873   0.16662253   1.10649636
  -0.18193873   0.16662253   1.10649636]
  alpha mo_energy =
[-15.68003218  -1.15386876   0.13930353   0.65120532   0.65120532
   1.29440463   2.38262743   2.38262743   0.65120532   2.38262743
   0.65120532   2.38262743   0.65120532   2.38262743  -0.56755542
   0.15646201   1.03105766  -0.56755542   0.15646201   1.03105766
  -0.56755542   0.15646201   1.03105766]
  beta  mo_energy =
[-15.59455068  -0.74350959   0.16239438   0.71749849   0.71749849
   1.40207455   2.55770199   2.55770199   0.71749849   2.55770199
   0.71749849   2.55770199   0.71749849   2.55770199   0.20367796
   0.17678304   1.18193507   0.20367796   0.17678304   1.18193507
   0.20367796   0.17678304   1.18193507]
E1 = -73.90511399463291  Ecoul = 19.51524326554661
cycle= 25 E= -54.3898707290863  delta_E= -2.84e-14  |g|= 1.46e-10  |ddm|= 1.16e-10
    CPU time for cycle= 25      4.79 sec, wall time      0.80 sec
diis-norm(errvec)=2.06709e-10
Linear dependence found in DIIS error vectors.
diis-c [-2.89052492e-16  1.25000000e-01  1.25000000e-01  1.25000000e-01
  1.25000000e-01  1.25000000e-01  1.25000000e-01  1.25000000e-01
  1.25000000e-01]
HOMO (B2u) = -0.18193872814226  LUMO (Ag) = 0.150848955235873
double occ irrep_nelec = [2, 0, 0, 0, 0, 0, 0]
single occ irrep_nelec = [0, 0, 0, 0, 1, 1, 1]
                  Roothaan           | alpha              | beta
  Highest 2-occ = -0.948689175763343 |  -1.15386876125256 | -0.743509590010426
  Lowest 0-occ =   0.150848955235873 |  0.139303534522413 |  0.162394375990199
  1-occ =          -0.18193872814226 | -0.567555416208813 |  0.203677960231815
  1-occ =          -0.18193872814226 | -0.567555416208812 |  0.203677960231816
  1-occ =          -0.18193872814226 | -0.567555416208812 |  0.203677960231815
  Roothaan mo_energy =
[-15.63729143  -0.94868918   0.15084896   0.68435191   0.68435191
   1.34823959   2.47016471   2.47016471   0.68435191   2.47016471
   0.68435191   2.47016471   0.68435191   2.47016471  -0.18193873
   0.16662253   1.10649636  -0.18193873   0.16662253   1.10649636
  -0.18193873   0.16662253   1.10649636]
  alpha mo_energy =
[-15.68003218  -1.15386876   0.13930353   0.65120532   0.65120532
   1.29440463   2.38262743   2.38262743   0.65120532   2.38262743
   0.65120532   2.38262743   0.65120532   2.38262743  -0.56755542
   0.15646201   1.03105766  -0.56755542   0.15646201   1.03105766
  -0.56755542   0.15646201   1.03105766]
  beta  mo_energy =
[-15.59455068  -0.74350959   0.16239438   0.71749849   0.71749849
   1.40207455   2.55770199   2.55770199   0.71749849   2.55770199
   0.71749849   2.55770199   0.71749849   2.55770199   0.20367796
   0.17678304   1.18193507   0.20367796   0.17678304   1.18193507
   0.20367796   0.17678304   1.18193507]
E1 = -73.9051139945003  Ecoul = 19.515243265414004
cycle= 26 E= -54.3898707290863  delta_E= 7.11e-15  |g|= 1.09e-10  |ddm|= 3.47e-11
    CPU time for cycle= 26      4.79 sec, wall time      0.80 sec
diis-norm(errvec)=1.54206e-10
Linear dependence found in DIIS error vectors.
diis-c [-2.89052492e-16  1.25000000e-01  1.25000000e-01  1.25000000e-01
  1.25000000e-01  1.25000000e-01  1.25000000e-01  1.25000000e-01
  1.25000000e-01]
HOMO (B2u) = -0.181938728062079  LUMO (Ag) = 0.150848955246938
double occ irrep_nelec = [2, 0, 0, 0, 0, 0, 0]
single occ irrep_nelec = [0, 0, 0, 0, 1, 1, 1]
                  Roothaan           | alpha              | beta
  Highest 2-occ = -0.948689175696476 |  -1.15386876126498 | -0.743509590028888
  Lowest 0-occ =   0.150848955246938 |  0.139303534519435 |  0.162394375988122
  1-occ =         -0.181938728062079 | -0.567555416219499 |   0.20367796019425
  1-occ =         -0.181938728062079 | -0.567555416219498 |  0.203677960194251
  1-occ =         -0.181938728062079 | -0.567555416219499 |   0.20367796019425
  Roothaan mo_energy =
[-15.63729143  -0.94868918   0.15084896   0.68435191   0.68435191
   1.34823959   2.47016471   2.47016471   0.68435191   2.47016471
   0.68435191   2.47016471   0.68435191   2.47016471  -0.18193873
   0.16662253   1.10649636  -0.18193873   0.16662253   1.10649636
  -0.18193873   0.16662253   1.10649636]
  alpha mo_energy =
[-15.68003218  -1.15386876   0.13930353   0.65120532   0.65120532
   1.29440463   2.38262743   2.38262743   0.65120532   2.38262743
   0.65120532   2.38262743   0.65120532   2.38262743  -0.56755542
   0.15646201   1.03105766  -0.56755542   0.15646201   1.03105766
  -0.56755542   0.15646201   1.03105766]
  beta  mo_energy =
[-15.59455068  -0.74350959   0.16239438   0.71749849   0.71749849
   1.40207455   2.55770199   2.55770199   0.71749849   2.55770199
   0.71749849   2.55770199   0.71749849   2.55770199   0.20367796
   0.17678304   1.18193507   0.20367796   0.17678304   1.18193507
   0.20367796   0.17678304   1.18193507]
E1 = -73.905113994105  Ecoul = 19.515243265018704
cycle= 27 E= -54.3898707290863  delta_E= 7.11e-15  |g|= 8.65e-12  |ddm|= 9.42e-11
    CPU time for cycle= 27      4.84 sec, wall time      0.80 sec
diis-norm(errvec)=1.22285e-11
Linear dependence found in DIIS error vectors.
diis-c [-2.89052492e-16  1.25000000e-01  1.25000000e-01  1.25000000e-01
  1.25000000e-01  1.25000000e-01  1.25000000e-01  1.25000000e-01
  1.25000000e-01]
HOMO (B2u) = -0.181938728055307  LUMO (Ag) = 0.15084895524757
double occ irrep_nelec = [2, 0, 0, 0, 0, 0, 0]
single occ irrep_nelec = [0, 0, 0, 0, 1, 1, 1]
                  Roothaan           | alpha              | beta
  Highest 2-occ = -0.948689175691008 |  -1.15386876130315 | -0.743509590080608
  Lowest 0-occ =    0.15084895524757 |  0.139303534510143 |  0.162394375983207
  1-occ =         -0.181938728055308 | -0.567555416251637 |  0.203677960140971
  1-occ =         -0.181938728055307 | -0.567555416251636 |  0.203677960140971
  1-occ =         -0.181938728055307 | -0.567555416251636 |  0.203677960140972
  Roothaan mo_energy =
[-15.63729143  -0.94868918   0.15084896   0.68435191   0.68435191
   1.34823959   2.47016471   2.47016471   0.68435191   2.47016471
   0.68435191   2.47016471   0.68435191   2.47016471  -0.18193873
   0.16662253   1.10649636  -0.18193873   0.16662253   1.10649636
  -0.18193873   0.16662253   1.10649636]
  alpha mo_energy =
[-15.68003218  -1.15386876   0.13930353   0.65120532   0.65120532
   1.29440463   2.38262743   2.38262743   0.65120532   2.38262743
   0.65120532   2.38262743   0.65120532   2.38262743  -0.56755542
   0.15646201   1.03105766  -0.56755542   0.15646201   1.03105766
  -0.56755542   0.15646201   1.03105766]
  beta  mo_energy =
[-15.59455068  -0.74350959   0.16239438   0.71749849   0.71749849
   1.40207455   2.55770199   2.55770199   0.71749849   2.55770199
   0.71749849   2.55770199   0.71749849   2.55770199   0.20367796
   0.17678304   1.18193507   0.20367796   0.17678304   1.18193507
   0.20367796   0.17678304   1.18193507]
E1 = -73.90511399407922  Ecoul = 19.515243264992932
cycle= 28 E= -54.3898707290863  delta_E= 7.11e-15  |g|= 1.08e-11  |ddm|= 5.24e-12
    CPU time for cycle= 28      4.38 sec, wall time      0.79 sec
diis-norm(errvec)=1.53241e-11
Linear dependence found in DIIS error vectors.
diis-c [-2.89052492e-16  1.25000000e-01  1.25000000e-01  1.25000000e-01
  1.25000000e-01  1.25000000e-01  1.25000000e-01  1.25000000e-01
  1.25000000e-01]
HOMO (B3u) = -0.181938728050258  LUMO (Ag) = 0.15084895524797
double occ irrep_nelec = [2, 0, 0, 0, 0, 0, 0]
single occ irrep_nelec = [0, 0, 0, 0, 1, 1, 1]
                  Roothaan           | alpha              | beta
  Highest 2-occ = -0.948689175687001 |  -1.15386876130558 | -0.743509590083889
  Lowest 0-occ =    0.15084895524797 |  0.139303534509666 |  0.162394375982891
  1-occ =         -0.181938728050258 | -0.567555416253655 |  0.203677960136836
  1-occ =         -0.181938728050258 | -0.567555416253655 |  0.203677960136835
  1-occ =         -0.181938728050258 | -0.567555416253654 |  0.203677960136836
  Roothaan mo_energy =
[-15.63729143  -0.94868918   0.15084896   0.68435191   0.68435191
   1.34823959   2.47016471   2.47016471   0.68435191   2.47016471
   0.68435191   2.47016471   0.68435191   2.47016471  -0.18193873
   0.16662253   1.10649636  -0.18193873   0.16662253   1.10649636
  -0.18193873   0.16662253   1.10649636]
  alpha mo_energy =
[-15.68003218  -1.15386876   0.13930353   0.65120532   0.65120532
   1.29440463   2.38262743   2.38262743   0.65120532   2.38262743
   0.65120532   2.38262743   0.65120532   2.38262743  -0.56755542
   0.15646201   1.03105766  -0.56755542   0.15646201   1.03105766
  -0.56755542   0.15646201   1.03105766]
  beta  mo_energy =
[-15.59455068  -0.74350959   0.16239438   0.71749849   0.71749849
   1.40207455   2.55770199   2.55770199   0.71749849   2.55770199
   0.71749849   2.55770199   0.71749849   2.55770199   0.20367796
   0.17678304   1.18193507   0.20367796   0.17678304   1.18193507
   0.20367796   0.17678304   1.18193507]
E1 = -73.90511399406174  Ecoul = 19.515243264975457
cycle= 29 E= -54.3898707290863  delta_E=    0  |g|= 1.39e-11  |ddm|= 3.94e-12
    CPU time for cycle= 29      4.70 sec, wall time      0.71 sec
diis-norm(errvec)=1.96547e-11
Linear dependence found in DIIS error vectors.
diis-c [-2.89052492e-16  1.25000000e-01  1.25000000e-01  1.25000000e-01
  1.25000000e-01  1.25000000e-01  1.25000000e-01  1.25000000e-01
  1.25000000e-01]
HOMO (B3u) = -0.181938728046353  LUMO (Ag) = 0.150848955248262
double occ irrep_nelec = [2, 0, 0, 0, 0, 0, 0]
single occ irrep_nelec = [0, 0, 0, 0, 1, 1, 1]
                  Roothaan           | alpha              | beta
  Highest 2-occ = -0.948689175684016 |  -1.15386876130725 | -0.743509590086082
  Lowest 0-occ =   0.150848955248262 |  0.139303534509374 |   0.16239437598267
  1-occ =         -0.181938728046353 | -0.567555416254991 |  0.203677960133943
  1-occ =         -0.181938728046353 | -0.567555416254991 |  0.203677960133943
  1-occ =         -0.181938728046353 | -0.567555416254991 |  0.203677960133944
  Roothaan mo_energy =
[-15.63729143  -0.94868918   0.15084896   0.68435191   0.68435191
   1.34823959   2.47016471   2.47016471   0.68435191   2.47016471
   0.68435191   2.47016471   0.68435191   2.47016471  -0.18193873
   0.16662253   1.10649636  -0.18193873   0.16662253   1.10649636
  -0.18193873   0.16662253   1.10649636]
  alpha mo_energy =
[-15.68003218  -1.15386876   0.13930353   0.65120532   0.65120532
   1.29440463   2.38262743   2.38262743   0.65120532   2.38262743
   0.65120532   2.38262743   0.65120532   2.38262743  -0.56755542
   0.15646201   1.03105766  -0.56755542   0.15646201   1.03105766
  -0.56755542   0.15646201   1.03105766]
  beta  mo_energy =
[-15.59455068  -0.74350959   0.16239438   0.71749849   0.71749849
   1.40207455   2.55770199   2.55770199   0.71749849   2.55770199
   0.71749849   2.55770199   0.71749849   2.55770199   0.20367796
   0.17678304   1.18193507   0.20367796   0.17678304   1.18193507
   0.20367796   0.17678304   1.18193507]
E1 = -73.90511399404835  Ecoul = 19.515243264962063
cycle= 30 E= -54.3898707290863  delta_E=    0  |g|= 1.65e-11  |ddm|= 3.27e-12
    CPU time for cycle= 30      4.68 sec, wall time      0.80 sec
diis-norm(errvec)=2.33559e-11
Linear dependence found in DIIS error vectors.
diis-c [-2.89052492e-16  1.25000000e-01  1.25000000e-01  1.25000000e-01
  1.25000000e-01  1.25000000e-01  1.25000000e-01  1.25000000e-01
  1.25000000e-01]
HOMO (B3u) = -0.181938728043253  LUMO (Ag) = 0.150848955248488
double occ irrep_nelec = [2, 0, 0, 0, 0, 0, 0]
single occ irrep_nelec = [0, 0, 0, 0, 1, 1, 1]
[...]
  1.25000000e-01  1.25000000e-01  1.25000000e-01  1.25000000e-01
  1.25000000e-01]
HOMO (B3u) = -0.18193872805528  LUMO (Ag) = 0.150848955246677
double occ irrep_nelec = [2, 0, 0, 0, 0, 0, 0]
single occ irrep_nelec = [0, 0, 0, 0, 1, 1, 1]
                  Roothaan           | alpha              | beta
  Highest 2-occ = -0.948689175692879 |  -1.15386876130424 | -0.743509590081516
  Lowest 0-occ =   0.150848955246677 |  0.139303534510311 |  0.162394375983039
  1-occ =          -0.18193872805528 |  -0.56755541625146 |  0.203677960140896
  1-occ =          -0.18193872805528 | -0.567555416251459 |  0.203677960140896
  1-occ =          -0.18193872805528 | -0.567555416251459 |  0.203677960140895
  Roothaan mo_energy =
[-15.63729143  -0.94868918   0.15084896   0.68435191   0.68435191
   1.34823959   2.47016471   2.47016471   0.68435191   2.47016471
   0.68435191   2.47016471   0.68435191   2.47016471  -0.18193873
   0.16662253   1.10649636  -0.18193873   0.16662253   1.10649636
  -0.18193873   0.16662253   1.10649636]
  alpha mo_energy =
[-15.68003218  -1.15386876   0.13930353   0.65120532   0.65120532
   1.29440463   2.38262743   2.38262743   0.65120532   2.38262743
   0.65120532   2.38262743   0.65120532   2.38262743  -0.56755542
   0.15646201   1.03105766  -0.56755542   0.15646201   1.03105766
  -0.56755542   0.15646201   1.03105766]
  beta  mo_energy =
[-15.59455068  -0.74350959   0.16239438   0.71749849   0.71749849
   1.40207455   2.55770199   2.55770199   0.71749849   2.55770199
   0.71749849   2.55770199   0.71749849   2.55770199   0.20367796
   0.17678304   1.18193507   0.20367796   0.17678304   1.18193507
   0.20367796   0.17678304   1.18193507]
E1 = -73.9051139940988  Ecoul = 19.515243265012522
cycle= 81 E= -54.3898707290863  delta_E= 7.11e-15  |g|= 4.52e-15  |ddm|= 1.82e-15
    CPU time for cycle= 81      5.05 sec, wall time      0.89 sec
diis-norm(errvec)=7.73475e-15
Linear dependence found in DIIS error vectors.
diis-c [-2.89052492e-16  1.25000000e-01  1.25000000e-01  1.25000000e-01
  1.25000000e-01  1.25000000e-01  1.25000000e-01  1.25000000e-01
  1.25000000e-01]
HOMO (B3u) = -0.18193872805528  LUMO (Ag) = 0.150848955246676
double occ irrep_nelec = [2, 0, 0, 0, 0, 0, 0]
single occ irrep_nelec = [0, 0, 0, 0, 1, 1, 1]
                  Roothaan           | alpha              | beta
  Highest 2-occ =  -0.94868917569288 |  -1.15386876130425 | -0.743509590081516
  Lowest 0-occ =   0.150848955246676 |  0.139303534510314 |  0.162394375983042
  1-occ =          -0.18193872805528 | -0.567555416251458 |  0.203677960140898
  1-occ =          -0.18193872805528 | -0.567555416251457 |  0.203677960140897
  1-occ =          -0.18193872805528 | -0.567555416251457 |  0.203677960140897
  Roothaan mo_energy =
[-15.63729143  -0.94868918   0.15084896   0.68435191   0.68435191
   1.34823959   2.47016471   2.47016471   0.68435191   2.47016471
   0.68435191   2.47016471   0.68435191   2.47016471  -0.18193873
   0.16662253   1.10649636  -0.18193873   0.16662253   1.10649636
  -0.18193873   0.16662253   1.10649636]
  alpha mo_energy =
[-15.68003218  -1.15386876   0.13930353   0.65120532   0.65120532
   1.29440463   2.38262743   2.38262743   0.65120532   2.38262743
   0.65120532   2.38262743   0.65120532   2.38262743  -0.56755542
   0.15646201   1.03105766  -0.56755542   0.15646201   1.03105766
  -0.56755542   0.15646201   1.03105766]
  beta  mo_energy =
[-15.59455068  -0.74350959   0.16239438   0.71749849   0.71749849
   1.40207455   2.55770199   2.55770199   0.71749849   2.55770199
   0.71749849   2.55770199   0.71749849   2.55770199   0.20367796
   0.17678304   1.18193507   0.20367796   0.17678304   1.18193507
   0.20367796   0.17678304   1.18193507]
E1 = -73.9051139940988  Ecoul = 19.515243265012533
cycle= 82 E= -54.3898707290863  delta_E= 7.11e-15  |g|= 1.04e-14  |ddm|= 3.55e-15
    CPU time for cycle= 82      4.53 sec, wall time      0.71 sec
diis-norm(errvec)=1.40216e-14
Linear dependence found in DIIS error vectors.
diis-c [-2.89052492e-16  1.25000000e-01  1.25000000e-01  1.25000000e-01
  1.25000000e-01  1.25000000e-01  1.25000000e-01  1.25000000e-01
  1.25000000e-01]
HOMO (B2u) = -0.18193872805528  LUMO (Ag) = 0.150848955246677
double occ irrep_nelec = [2, 0, 0, 0, 0, 0, 0]
single occ irrep_nelec = [0, 0, 0, 0, 1, 1, 1]
                  Roothaan           | alpha              | beta
  Highest 2-occ = -0.948689175692879 |  -1.15386876130424 | -0.743509590081514
  Lowest 0-occ =   0.150848955246677 |  0.139303534510313 |  0.162394375983042
  1-occ =          -0.18193872805528 | -0.567555416251458 |  0.203677960140899
  1-occ =          -0.18193872805528 | -0.567555416251456 |  0.203677960140899
  1-occ =          -0.18193872805528 | -0.567555416251456 |  0.203677960140898
  Roothaan mo_energy =
[-15.63729143  -0.94868918   0.15084896   0.68435191   0.68435191
   1.34823959   2.47016471   2.47016471   0.68435191   2.47016471
   0.68435191   2.47016471   0.68435191   2.47016471  -0.18193873
   0.16662253   1.10649636  -0.18193873   0.16662253   1.10649636
  -0.18193873   0.16662253   1.10649636]
  alpha mo_energy =
[-15.68003218  -1.15386876   0.13930353   0.65120532   0.65120532
   1.29440463   2.38262743   2.38262743   0.65120532   2.38262743
   0.65120532   2.38262743   0.65120532   2.38262743  -0.56755542
   0.15646201   1.03105766  -0.56755542   0.15646201   1.03105766
  -0.56755542   0.15646201   1.03105766]
  beta  mo_energy =
[-15.59455068  -0.74350959   0.16239438   0.71749849   0.71749849
   1.40207455   2.55770199   2.55770199   0.71749849   2.55770199
   0.71749849   2.55770199   0.71749849   2.55770199   0.20367796
   0.17678304   1.18193507   0.20367796   0.17678304   1.18193507
   0.20367796   0.17678304   1.18193507]
E1 = -73.90511399409878  Ecoul = 19.515243265012508
cycle= 83 E= -54.3898707290863  delta_E= -7.11e-15  |g|= 6.71e-15  |ddm|= 1.74e-15
    CPU time for cycle= 83      4.65 sec, wall time      0.79 sec
diis-norm(errvec)=6.29348e-15
Linear dependence found in DIIS error vectors.
diis-c [-2.89052492e-16  1.25000000e-01  1.25000000e-01  1.25000000e-01
  1.25000000e-01  1.25000000e-01  1.25000000e-01  1.25000000e-01
  1.25000000e-01]
HOMO (B2u) = -0.18193872805528  LUMO (Ag) = 0.150848955246677
double occ irrep_nelec = [2, 0, 0, 0, 0, 0, 0]
single occ irrep_nelec = [0, 0, 0, 0, 1, 1, 1]
                  Roothaan           | alpha              | beta
  Highest 2-occ = -0.948689175692879 |  -1.15386876130425 | -0.743509590081517
  Lowest 0-occ =   0.150848955246677 |  0.139303534510311 |  0.162394375983039
  1-occ =         -0.181938728055281 | -0.567555416251459 |  0.203677960140897
  1-occ =          -0.18193872805528 | -0.567555416251458 |  0.203677960140896
  1-occ =          -0.18193872805528 | -0.567555416251458 |  0.203677960140896
  Roothaan mo_energy =
[-15.63729143  -0.94868918   0.15084896   0.68435191   0.68435191
   1.34823959   2.47016471   2.47016471   0.68435191   2.47016471
   0.68435191   2.47016471   0.68435191   2.47016471  -0.18193873
   0.16662253   1.10649636  -0.18193873   0.16662253   1.10649636
  -0.18193873   0.16662253   1.10649636]
  alpha mo_energy =
[-15.68003218  -1.15386876   0.13930353   0.65120532   0.65120532
   1.29440463   2.38262743   2.38262743   0.65120532   2.38262743
   0.65120532   2.38262743   0.65120532   2.38262743  -0.56755542
   0.15646201   1.03105766  -0.56755542   0.15646201   1.03105766
  -0.56755542   0.15646201   1.03105766]
  beta  mo_energy =
[-15.59455068  -0.74350959   0.16239438   0.71749849   0.71749849
   1.40207455   2.55770199   2.55770199   0.71749849   2.55770199
   0.71749849   2.55770199   0.71749849   2.55770199   0.20367796
   0.17678304   1.18193507   0.20367796   0.17678304   1.18193507
   0.20367796   0.17678304   1.18193507]
E1 = -73.90511399409878  Ecoul = 19.515243265012522
cycle= 84 E= -54.3898707290863  delta_E= 1.42e-14  |g|= 1.56e-14  |ddm|= 2.27e-15
    CPU time for cycle= 84      4.60 sec, wall time      0.79 sec
diis-norm(errvec)=2.07034e-14
Linear dependence found in DIIS error vectors.
diis-c [-2.89052492e-16  1.25000000e-01  1.25000000e-01  1.25000000e-01
  1.25000000e-01  1.25000000e-01  1.25000000e-01  1.25000000e-01
  1.25000000e-01]
HOMO (B2u) = -0.18193872805528  LUMO (Ag) = 0.150848955246677
double occ irrep_nelec = [2, 0, 0, 0, 0, 0, 0]
single occ irrep_nelec = [0, 0, 0, 0, 1, 1, 1]
                  Roothaan           | alpha              | beta
  Highest 2-occ = -0.948689175692879 |  -1.15386876130425 | -0.743509590081515
  Lowest 0-occ =   0.150848955246677 |  0.139303534510313 |  0.162394375983041
  1-occ =         -0.181938728055281 | -0.567555416251458 |  0.203677960140898
  1-occ =          -0.18193872805528 | -0.567555416251457 |  0.203677960140898
  1-occ =          -0.18193872805528 | -0.567555416251457 |  0.203677960140898
  Roothaan mo_energy =
[-15.63729143  -0.94868918   0.15084896   0.68435191   0.68435191
   1.34823959   2.47016471   2.47016471   0.68435191   2.47016471
   0.68435191   2.47016471   0.68435191   2.47016471  -0.18193873
   0.16662253   1.10649636  -0.18193873   0.16662253   1.10649636
  -0.18193873   0.16662253   1.10649636]
  alpha mo_energy =
[-15.68003218  -1.15386876   0.13930353   0.65120532   0.65120532
   1.29440463   2.38262743   2.38262743   0.65120532   2.38262743
   0.65120532   2.38262743   0.65120532   2.38262743  -0.56755542
   0.15646201   1.03105766  -0.56755542   0.15646201   1.03105766
  -0.56755542   0.15646201   1.03105766]
  beta  mo_energy =
[-15.59455068  -0.74350959   0.16239438   0.71749849   0.71749849
   1.40207455   2.55770199   2.55770199   0.71749849   2.55770199
   0.71749849   2.55770199   0.71749849   2.55770199   0.20367796
   0.17678304   1.18193507   0.20367796   0.17678304   1.18193507
   0.20367796   0.17678304   1.18193507]
E1 = -73.9051139940988  Ecoul = 19.515243265012515
cycle= 85 E= -54.3898707290863  delta_E= -2.13e-14  |g|= 8.03e-15  |ddm|= 2.69e-15
    CPU time for cycle= 85      5.21 sec, wall time      0.94 sec
diis-norm(errvec)=1.66251e-14
Linear dependence found in DIIS error vectors.
diis-c [-2.89052492e-16  1.25000000e-01  1.25000000e-01  1.25000000e-01
  1.25000000e-01  1.25000000e-01  1.25000000e-01  1.25000000e-01
  1.25000000e-01]
HOMO (B2u) = -0.18193872805528  LUMO (Ag) = 0.150848955246677
double occ irrep_nelec = [2, 0, 0, 0, 0, 0, 0]
single occ irrep_nelec = [0, 0, 0, 0, 1, 1, 1]
                  Roothaan           | alpha              | beta
  Highest 2-occ =  -0.94868917569288 |  -1.15386876130424 | -0.743509590081515
  Lowest 0-occ =   0.150848955246677 |  0.139303534510315 |  0.162394375983043
  1-occ =         -0.181938728055281 | -0.567555416251458 |  0.203677960140897
  1-occ =          -0.18193872805528 | -0.567555416251458 |  0.203677960140897
  1-occ =          -0.18193872805528 | -0.567555416251458 |  0.203677960140897
  Roothaan mo_energy =
[-15.63729143  -0.94868918   0.15084896   0.68435191   0.68435191
   1.34823959   2.47016471   2.47016471   0.68435191   2.47016471
   0.68435191   2.47016471   0.68435191   2.47016471  -0.18193873
   0.16662253   1.10649636  -0.18193873   0.16662253   1.10649636
  -0.18193873   0.16662253   1.10649636]
  alpha mo_energy =
[-15.68003218  -1.15386876   0.13930353   0.65120532   0.65120532
   1.29440463   2.38262743   2.38262743   0.65120532   2.38262743
   0.65120532   2.38262743   0.65120532   2.38262743  -0.56755542
   0.15646201   1.03105766  -0.56755542   0.15646201   1.03105766
  -0.56755542   0.15646201   1.03105766]
  beta  mo_energy =
[-15.59455068  -0.74350959   0.16239438   0.71749849   0.71749849
   1.40207455   2.55770199   2.55770199   0.71749849   2.55770199
   0.71749849   2.55770199   0.71749849   2.55770199   0.20367796
   0.17678304   1.18193507   0.20367796   0.17678304   1.18193507
   0.20367796   0.17678304   1.18193507]
E1 = -73.90511399409883  Ecoul = 19.515243265012515
cycle= 86 E= -54.3898707290863  delta_E= -2.84e-14  |g|= 1.17e-14  |ddm|= 8.88e-16
    CPU time for cycle= 86      5.03 sec, wall time      0.77 sec
diis-norm(errvec)=2.46677e-14
Linear dependence found in DIIS error vectors.
diis-c [-2.89052492e-16  1.25000000e-01  1.25000000e-01  1.25000000e-01
  1.25000000e-01  1.25000000e-01  1.25000000e-01  1.25000000e-01
  1.25000000e-01]
HOMO (B2u) = -0.18193872805528  LUMO (Ag) = 0.150848955246677
double occ irrep_nelec = [2, 0, 0, 0, 0, 0, 0]
single occ irrep_nelec = [0, 0, 0, 0, 1, 1, 1]
                  Roothaan           | alpha              | beta
  Highest 2-occ =  -0.94868917569288 |  -1.15386876130424 | -0.743509590081516
  Lowest 0-occ =   0.150848955246677 |  0.139303534510312 |   0.16239437598304
  1-occ =         -0.181938728055281 | -0.567555416251458 |  0.203677960140897
  1-occ =          -0.18193872805528 | -0.567555416251459 |  0.203677960140896
  1-occ =          -0.18193872805528 | -0.567555416251458 |  0.203677960140896
  Roothaan mo_energy =
[-15.63729143  -0.94868918   0.15084896   0.68435191   0.68435191
   1.34823959   2.47016471   2.47016471   0.68435191   2.47016471
   0.68435191   2.47016471   0.68435191   2.47016471  -0.18193873
   0.16662253   1.10649636  -0.18193873   0.16662253   1.10649636
  -0.18193873   0.16662253   1.10649636]
  alpha mo_energy =
[-15.68003218  -1.15386876   0.13930353   0.65120532   0.65120532
   1.29440463   2.38262743   2.38262743   0.65120532   2.38262743
   0.65120532   2.38262743   0.65120532   2.38262743  -0.56755542
   0.15646201   1.03105766  -0.56755542   0.15646201   1.03105766
  -0.56755542   0.15646201   1.03105766]
  beta  mo_energy =
[-15.59455068  -0.74350959   0.16239438   0.71749849   0.71749849
   1.40207455   2.55770199   2.55770199   0.71749849   2.55770199
   0.71749849   2.55770199   0.71749849   2.55770199   0.20367796
   0.17678304   1.18193507   0.20367796   0.17678304   1.18193507
   0.20367796   0.17678304   1.18193507]
E1 = -73.9051139940988  Ecoul = 19.515243265012522
cycle= 87 E= -54.3898707290863  delta_E= 3.55e-14  |g|= 6.74e-15  |ddm|= 2.74e-15
    CPU time for cycle= 87      4.88 sec, wall time      0.80 sec
diis-norm(errvec)=2.18341e-14
Linear dependence found in DIIS error vectors.
diis-c [-2.89052492e-16  1.25000000e-01  1.25000000e-01  1.25000000e-01
  1.25000000e-01  1.25000000e-01  1.25000000e-01  1.25000000e-01
  1.25000000e-01]
HOMO (B3u) = -0.18193872805528  LUMO (Ag) = 0.150848955246676
double occ irrep_nelec = [2, 0, 0, 0, 0, 0, 0]
single occ irrep_nelec = [0, 0, 0, 0, 1, 1, 1]
                  Roothaan           | alpha              | beta
  Highest 2-occ =  -0.94868917569288 |  -1.15386876130424 | -0.743509590081515
  Lowest 0-occ =   0.150848955246676 |  0.139303534510313 |   0.16239437598304
  1-occ =         -0.181938728055281 | -0.567555416251458 |  0.203677960140897
  1-occ =          -0.18193872805528 | -0.567555416251458 |  0.203677960140896
  1-occ =          -0.18193872805528 | -0.567555416251458 |  0.203677960140897
  Roothaan mo_energy =
[-15.63729143  -0.94868918   0.15084896   0.68435191   0.68435191
   1.34823959   2.47016471   2.47016471   0.68435191   2.47016471
   0.68435191   2.47016471   0.68435191   2.47016471  -0.18193873
   0.16662253   1.10649636  -0.18193873   0.16662253   1.10649636
  -0.18193873   0.16662253   1.10649636]
  alpha mo_energy =
[-15.68003218  -1.15386876   0.13930353   0.65120532   0.65120532
   1.29440463   2.38262743   2.38262743   0.65120532   2.38262743
   0.65120532   2.38262743   0.65120532   2.38262743  -0.56755542
   0.15646201   1.03105766  -0.56755542   0.15646201   1.03105766
  -0.56755542   0.15646201   1.03105766]
  beta  mo_energy =
[-15.59455068  -0.74350959   0.16239438   0.71749849   0.71749849
   1.40207455   2.55770199   2.55770199   0.71749849   2.55770199
   0.71749849   2.55770199   0.71749849   2.55770199   0.20367796
   0.17678304   1.18193507   0.20367796   0.17678304   1.18193507
   0.20367796   0.17678304   1.18193507]
E1 = -73.90511399409878  Ecoul = 19.515243265012515
cycle= 88 E= -54.3898707290863  delta_E= 7.11e-15  |g|= 8.23e-15  |ddm|= 2.66e-15
    CPU time for cycle= 88      4.79 sec, wall time      0.80 sec
diis-norm(errvec)=2.7035e-14
Linear dependence found in DIIS error vectors.
diis-c [-2.89052492e-16  1.25000000e-01  1.25000000e-01  1.25000000e-01
  1.25000000e-01  1.25000000e-01  1.25000000e-01  1.25000000e-01
  1.25000000e-01]
HOMO (B3u) = -0.18193872805528  LUMO (Ag) = 0.150848955246677
double occ irrep_nelec = [2, 0, 0, 0, 0, 0, 0]
single occ irrep_nelec = [0, 0, 0, 0, 1, 1, 1]
                  Roothaan           | alpha              | beta
  Highest 2-occ =  -0.94868917569288 |  -1.15386876130425 | -0.743509590081517
  Lowest 0-occ =   0.150848955246677 |  0.139303534510312 |   0.16239437598304
  1-occ =         -0.181938728055281 |  -0.56755541625146 |  0.203677960140896
  1-occ =          -0.18193872805528 | -0.567555416251459 |  0.203677960140895
  1-occ =          -0.18193872805528 | -0.567555416251458 |  0.203677960140896
  Roothaan mo_energy =
[-15.63729143  -0.94868918   0.15084896   0.68435191   0.68435191
   1.34823959   2.47016471   2.47016471   0.68435191   2.47016471
   0.68435191   2.47016471   0.68435191   2.47016471  -0.18193873
   0.16662253   1.10649636  -0.18193873   0.16662253   1.10649636
  -0.18193873   0.16662253   1.10649636]
  alpha mo_energy =
[-15.68003218  -1.15386876   0.13930353   0.65120532   0.65120532
   1.29440463   2.38262743   2.38262743   0.65120532   2.38262743
   0.65120532   2.38262743   0.65120532   2.38262743  -0.56755542
   0.15646201   1.03105766  -0.56755542   0.15646201   1.03105766
  -0.56755542   0.15646201   1.03105766]
  beta  mo_energy =
[-15.59455068  -0.74350959   0.16239438   0.71749849   0.71749849
   1.40207455   2.55770199   2.55770199   0.71749849   2.55770199
   0.71749849   2.55770199   0.71749849   2.55770199   0.20367796
   0.17678304   1.18193507   0.20367796   0.17678304   1.18193507
   0.20367796   0.17678304   1.18193507]
E1 = -73.9051139940988  Ecoul = 19.515243265012526
cycle= 89 E= -54.3898707290863  delta_E=    0  |g|= 8.92e-15  |ddm|= 7.01e-16
    CPU time for cycle= 89      4.81 sec, wall time      0.80 sec
HOMO (B1u) = -0.181938728055279  LUMO (Ag) = 0.150848955246678
double occ irrep_nelec = [2, 0, 0, 0, 0, 0, 0]
single occ irrep_nelec = [0, 0, 0, 0, 1, 1, 1]
                  Roothaan           | alpha              | beta
  Highest 2-occ = -0.948689175692879 |  -1.15386876130424 | -0.743509590081515
  Lowest 0-occ =   0.150848955246678 |  0.139303534510313 |  0.162394375983042
  1-occ =         -0.181938728055279 | -0.567555416251456 |  0.203677960140898
  1-occ =          -0.18193872805528 | -0.567555416251457 |  0.203677960140897
  1-occ =          -0.18193872805528 | -0.567555416251457 |  0.203677960140897
  Roothaan mo_energy =
[-15.63729143  -0.94868918   0.15084896   0.68435191   0.68435191
   1.34823959   2.47016471   2.47016471   0.68435191   2.47016471
   0.68435191   2.47016471   0.68435191   2.47016471  -0.18193873
   0.16662253   1.10649636  -0.18193873   0.16662253   1.10649636
  -0.18193873   0.16662253   1.10649636]
  alpha mo_energy =
[-15.68003218  -1.15386876   0.13930353   0.65120532   0.65120532
   1.29440463   2.38262743   2.38262743   0.65120532   2.38262743
   0.65120532   2.38262743   0.65120532   2.38262743  -0.56755542
   0.15646201   1.03105766  -0.56755542   0.15646201   1.03105766
  -0.56755542   0.15646201   1.03105766]
  beta  mo_energy =
[-15.59455068  -0.74350959   0.16239438   0.71749849   0.71749849
   1.40207455   2.55770199   2.55770199   0.71749849   2.55770199
   0.71749849   2.55770199   0.71749849   2.55770199   0.20367796
   0.17678304   1.18193507   0.20367796   0.17678304   1.18193507
   0.20367796   0.17678304   1.18193507]
E1 = -73.90511399409877  Ecoul = 19.515243265012515
Extra cycle  E= -54.3898707290863  delta_E= 1.42e-14  |g|= 1.08e-14  |ddm|= 7.01e-16
    CPU time for scf_cycle    511.96 sec, wall time     86.27 sec
    CPU time for SCF    513.23 sec, wall time     86.39 sec
converged SCF energy = -54.3898707290863
