#INFO: **** input file is /lustre06/project/6058907/simran1/pyscf-mrcc/input.py ****
import pyscf
from pyscf import cc, lib, tools, scf, symm, ao2mo
from pyscf.gto.basis import parse_gaussian
from pyscf.cc.mrcc import MRCCInterface
from pyscf.scf import atom_hf

name = 'out'
mol = pyscf.M(
    atom = '''
        N
    ''',
    unit = 'angstrom',
    basis = {
            'N' : parse_gaussian.load('N-aVDZ-EMSL.gbs', 'N')
    },
    charge = 0,
    spin = 3,
    symmetry = True,
    verbose = 9,
    symmetry_subgroup = 'D2h',
    output = name +'.txt',
    max_memory = 4000,
)

original_AtomSphAverageRHF = atom_hf.AtomSphAverageRHF

class CustomAtomSphAverageRHF(original_AtomSphAverageRHF):
    def __init__(self, mol):
        super().__init__(mol)
        self.max_cycle = 100
        self.direct_scf = False

atom_hf.AtomSphAverageRHF = CustomAtomSphAverageRHF

mf = mol.UHF().set(
    conv_tol=1e-14,
    max_cycle=9999,
    ddm_tol=1e-15,
    direct_scf=False,
    chkfile=name + '.chk',
    init_guess='atom',
    irrep_nelec={'Ag': 4, 'B3u': 1, 'B2u': 1, 'B1u': 1}
)

mf.kernel()

atom_hf.AtomSphAverageRHF = original_AtomSphAverageRHF
#pyscf.tools.fcidump.from_chkfile_uhf('FCIdump',name+'.chk',tol=1e-18, float_format='% 0.20E',molpro_orbsym=False,orbsym=None)
pyscf.tools.fcidump.from_scf_uhf(mf,'fort.55',tol=1e-18, float_format='% 0.20E',molpro_orbsym=False)

#MRCCInterface.run_mrcc(mf, fort_file='fort.55', mrcc_input_file='MINP', tol=1e-18, float_format='% 0.20E', molpro_orbsym=False)
#INFO: ******************** input file end ********************


System: uname_result(system='Linux', node='narval2.narval.calcul.quebec', release='4.18.0-553.50.1.el8_10.x86_64', version='#1 SMP Wed Apr 16 11:36:26 UTC 2025', machine='x86_64')  Threads 64
Python 3.13.2 (main, Feb  5 2025, 15:09:29) [GCC 13.3.0]
numpy 2.2.2  scipy 1.15.1  h5py 3.12.1
Date: Fri Jun 27 17:11:03 2025
PySCF version 2.8.0
PySCF path  /lustre06/project/6058907/simran1/pyscf-mrcc/lib/python3.13/site-packages/pyscf

[CONFIG] ARGPARSE = False
[CONFIG] DEBUG = False
[CONFIG] MAX_MEMORY = 4000
[CONFIG] TMPDIR = /tmp
[CONFIG] UNIT = angstrom
[CONFIG] VERBOSE = 3
[CONFIG] conf_file = None
[INPUT] verbose = 9
[INPUT] max_memory = 4000 
[INPUT] num. atoms = 1
[INPUT] num. electrons = 7
[INPUT] charge = 0
[INPUT] spin (= nelec alpha-beta = 2S) = 3
[INPUT] symmetry True subgroup D2h
[INPUT] Mole.unit = angstrom
[INPUT] Symbol           X                Y                Z      unit          X                Y                Z       unit  Magmom
[INPUT]  1 N      0.000000000000   0.000000000000   0.000000000000 AA    0.000000000000   0.000000000000   0.000000000000 Bohr   0.0
[INPUT] ---------------- BASIS SET ---------------- 
[INPUT] l, kappa, [nprim/nctr], expnt,             c_1 c_2 ...
[INPUT] N
[INPUT] 0    0    [9    /2   ]  9046              0.0007 -0.000153
                                1357              0.005389 -0.001208
                                309.3             0.027406 -0.005992
                                87.73             0.103207 -0.024544
                                28.56             0.278723 -0.067459
                                10.21             0.44854 -0.158078
                                3.838             0.278238 -0.121831
                                0.7466            0.01544 0.549003
                                0.2248            -0.002864 0.578815
[INPUT] 0    0    [1    /1   ]  0.2248               1
[INPUT] 0    0    [1    /1   ]  0.06124              1
[INPUT] 1    0    [4    /1   ]  13.55             0.039919
                                2.917             0.217169
                                0.7973            0.510319
                                0.2185            0.462214
[INPUT] 1    0    [1    /1   ]  0.2185               1
[INPUT] 1    0    [1    /1   ]  0.05611              1
[INPUT] 2    0    [1    /1   ]  0.817                1
[INPUT] 2    0    [1    /1   ]  0.23                 1

nuclear repulsion = 0
point group symmetry = SO3, use subgroup D2h
symmetry origin: [0. 0. 0.]
symmetry axis x: [1. 0. 0.]
symmetry axis y: [0. 1. 0.]
symmetry axis z: [0. 0. 1.]
num. orbitals of irrep Ag = 8
num. orbitals of irrep B1g = 2
num. orbitals of irrep B2g = 2
num. orbitals of irrep B3g = 2
num. orbitals of irrep B1u = 3
num. orbitals of irrep B2u = 3
num. orbitals of irrep B3u = 3
number of shells = 8
number of NR pGTOs = 39
number of NR cGTOs = 23
basis = {'N': [[0, [9046.0, 0.0007, -0.000153], [1357.0, 0.005389, -0.001208], [309.3, 0.027406, -0.005992], [87.73, 0.103207, -0.024544], [28.56, 0.278723, -0.067459], [10.21, 0.44854, -0.158078], [3.838, 0.278238, -0.121831], [0.7466, 0.01544, 0.549003], [0.2248, -0.002864, 0.578815]], [0, [0.2248, 1.0]], [0, [0.06124, 1.0]], [1, [13.55, 0.039919], [2.917, 0.217169], [0.7973, 0.510319], [0.2185, 0.462214]], [1, [0.2185, 1.0]], [1, [0.05611, 1.0]], [2, [0.817, 1.0]], [2, [0.23, 1.0]]]}
ecp = {}
bas 0, expnt(s) = [9.046e+03 1.357e+03 3.093e+02 8.773e+01 2.856e+01 1.021e+01 3.838e+00
 7.466e-01 2.248e-01]
bas 1, expnt(s) = [0.2248]
bas 2, expnt(s) = [0.06124]
bas 3, expnt(s) = [13.55    2.917   0.7973  0.2185]
bas 4, expnt(s) = [0.2185]
bas 5, expnt(s) = [0.05611]
bas 6, expnt(s) = [0.817]
bas 7, expnt(s) = [0.23]
CPU time:         0.99
arg.atm = [[ 7 20  1 23  0  0]]
arg.bas = [[ 0  0  9  2  0 24 33  0]
 [ 0  0  1  1  0 51 52  0]
 [ 0  0  1  1  0 53 54  0]
 [ 0  1  4  1  0 55 59  0]
 [ 0  1  1  1  0 63 64  0]
 [ 0  1  1  1  0 65 66  0]
 [ 0  2  1  1  0 67 68  0]
 [ 0  2  1  1  0 69 70  0]]
arg.env = [ 0.00000000e+00  0.00000000e+00  0.00000000e+00  0.00000000e+00
  0.00000000e+00  0.00000000e+00  0.00000000e+00  0.00000000e+00
  0.00000000e+00  0.00000000e+00  0.00000000e+00  0.00000000e+00
  0.00000000e+00  0.00000000e+00  0.00000000e+00  0.00000000e+00
  0.00000000e+00  0.00000000e+00  0.00000000e+00  0.00000000e+00
  0.00000000e+00  0.00000000e+00  0.00000000e+00  0.00000000e+00
  9.04600000e+03  1.35700000e+03  3.09300000e+02  8.77300000e+01
  2.85600000e+01  1.02100000e+01  3.83800000e+00  7.46600000e-01
  2.24800000e-01  1.64042177e+00  3.04409439e+00  5.10676225e+00
  7.47455423e+00  8.69974465e+00  6.47270078e+00  1.92757026e+00
  3.13312939e-02 -2.36230130e-03 -3.58549285e-01 -6.82365109e-01
 -1.11653344e+00 -1.77754839e+00 -2.10558871e+00 -2.28115991e+00
 -8.44017650e-01  1.11405261e+00  4.77421529e-01  2.24800000e-01
  8.24825833e-01  6.12400000e-02  3.11022216e-01  1.35500000e+01
  2.91700000e+00  7.97300000e-01  2.18500000e-01  3.02752891e+00
  2.41519886e+00  1.12163995e+00  2.01438243e-01  2.18500000e-01
  4.35811508e-01  5.61100000e-02  7.96681493e-02  8.17000000e-01
  1.83196843e+00  2.30000000e-01  1.99321019e-01]
ecpbas  = []


******** <class 'pyscf.scf.uhf_symm.SymAdaptedUHF'> ********
method = SymAdaptedUHF
initial guess = atom
damping factor = 0
level_shift factor = 0
DIIS = <class 'pyscf.scf.diis.CDIIS'>
diis_start_cycle = 1
diis_space = 8
diis_damp = 0
SCF conv_tol = 1e-14
SCF conv_tol_grad = None
SCF ddm_tol = 1e-15
SCF max_cycles = 9999
direct_scf = False
chkfile to save SCF result = out.chk
max_memory 4000 MB (current use 85 MB)
number electrons alpha = 5  beta = 2
irrep_nelec {'Ag': 4, 'B3u': 1, 'B2u': 1, 'B1u': 1}
Freeze 7 electrons in irreps ['Ag', 'B3u', 'B2u', 'B1u']
    0 free electrons in irreps B1g B2g B3g
cond(S) = 88.23255039944318
Set gradient conv threshold to 1e-07
Spherically averaged atomic HF for {'N'}


******** <class '__main__.CustomAtomSphAverageRHF'> ********
method = CustomAtomSphAverageRHF
initial guess = minao
damping factor = 0
level_shift factor = 0
DIIS = <class 'pyscf.scf.diis.CDIIS'>
diis_start_cycle = 1
diis_space = 8
diis_damp = 0
SCF conv_tol = 1e-09
SCF conv_tol_grad = None
SCF ddm_tol = 1e-10
SCF max_cycles = 100
direct_scf = False
chkfile to save SCF result = /tmp/tmpxpklc9ve
max_memory 4000 MB (current use 86 MB)
atom = N
Set gradient conv threshold to 3.16228e-05
Initial guess from minao.
Nelec from initial guess = 6.998830474197233
E1 = -74.23914991285118  E_coul = 20.45735422537929
init E= -53.7817956874719
l = 0  e_0 = -15.5387546
l = 0  e_1 = -0.914097449
l = 0  e_2 = 0.153713476
l = 0  e_3 = 1.37196991
l = 1  e_0 = -0.166064547
l = 1  e_1 = 0.175566151
l = 1  e_2 = 1.13819897
l = 2  e_0 = 0.691314519
l = 2  e_1 = 2.49882579
    CPU time for initialize scf     10.66 sec, wall time      1.72 sec
l = 0  e_0 = -15.5387546
l = 0  e_1 = -0.914097449
l = 0  e_2 = 0.153713476
l = 0  e_3 = 1.37196991
l = 1  e_0 = -0.166064547
l = 1  e_1 = 0.175566151
l = 1  e_2 = 1.13819897
l = 2  e_0 = 0.691314519
l = 2  e_1 = 2.49882579
l = 0  occ = 2 + 0
l = 1  occ = 0 + 1
l = 2  occ = 0 + 0
l = 3  occ = 0 + 0
E1 = -72.54049767912305  E_coul = 18.7103908175359
cycle= 1 E= -53.8301068615872  delta_E= -0.0483  |g|=    0  |ddm|= 0.397
    CPU time for cycle= 1      1.89 sec, wall time      0.30 sec
diis-norm(errvec)=0.260557
diis-c [-0.06788971  1.        ]
l = 0  e_0 = -15.9940735
l = 0  e_1 = -1.09872612
l = 0  e_2 = 0.129031889
l = 0  e_3 = 1.2418988
l = 1  e_0 = -0.317483606
l = 1  e_1 = 0.157761231
l = 1  e_2 = 1.00176589
l = 2  e_0 = 0.640229144
l = 2  e_1 = 2.33993257
l = 0  occ = 2 + 0
l = 1  occ = 0 + 1
l = 2  occ = 0 + 0
l = 3  occ = 0 + 0
E1 = -73.41806704784825  E_coul = 19.57832356024569
cycle= 2 E= -53.8397434876026  delta_E= -0.00964  |g|=    0  |ddm|= 0.436
    CPU time for cycle= 2      4.24 sec, wall time      0.79 sec
diis-norm(errvec)=0.105875
diis-c [-5.89599037e-04  2.84303569e-01  7.15696431e-01]
l = 0  e_0 = -15.8285411
l = 0  e_1 = -1.03608023
l = 0  e_2 = 0.13748539
l = 0  e_3 = 1.28594555
l = 1  e_0 = -0.261182486
l = 1  e_1 = 0.165046201
l = 1  e_2 = 1.05212377
l = 2  e_0 = 0.6588248
l = 2  e_1 = 2.39808118
l = 0  occ = 2 + 0
l = 1  occ = 0 + 1
l = 2  occ = 0 + 0
l = 3  occ = 0 + 0
E1 = -73.12168469609958  E_coul = 19.279098704798262
cycle= 3 E= -53.8425859913013  delta_E= -0.00284  |g|=    0  |ddm|= 0.0974
    CPU time for cycle= 3      4.79 sec, wall time      0.71 sec
diis-norm(errvec)=0.0112253
diis-c [-1.62028534e-06 -9.99080254e-02 -1.29889418e-01  1.22979744e+00]
l = 0  e_0 = -15.8366919
l = 0  e_1 = -1.04058211
l = 0  e_2 = 0.137004411
l = 0  e_3 = 1.28331066
l = 1  e_0 = -0.263501946
l = 1  e_1 = 0.164910311
l = 1  e_2 = 1.05025053
l = 2  e_0 = 0.658060396
l = 2  e_1 = 2.39564485
l = 0  occ = 2 + 0
l = 1  occ = 0 + 1
l = 2  occ = 0 + 0
l = 3  occ = 0 + 0
E1 = -73.13711053379849  E_coul = 19.29450595843005
cycle= 4 E= -53.8426045753684  delta_E= -1.86e-05  |g|=    0  |ddm|= 0.0229
    CPU time for cycle= 4      4.57 sec, wall time      0.79 sec
diis-norm(errvec)=0.000610928
diis-c [-1.42439838e-08  3.08092896e-03  6.34281718e-03 -7.54204222e-02
  1.06599668e+00]
l = 0  e_0 = -15.837082
l = 0  e_1 = -1.04086367
l = 0  e_2 = 0.136887696
l = 0  e_3 = 1.28301244
l = 1  e_0 = -0.263687448
l = 1  e_1 = 0.164828545
l = 1  e_2 = 1.0499663
l = 2  e_0 = 0.657894731
l = 2  e_1 = 2.39532464
l = 0  occ = 2 + 0
l = 1  occ = 0 + 1
l = 2  occ = 0 + 0
l = 3  occ = 0 + 0
E1 = -73.13826526880835  E_coul = 19.29566062872181
cycle= 5 E= -53.8426046400865  delta_E= -6.47e-08  |g|=    0  |ddm|= 0.00102
    CPU time for cycle= 5      4.67 sec, wall time      0.80 sec
diis-norm(errvec)=1.1181e-05
diis-c [-1.16701082e-11  2.66632124e-04  1.31418559e-04 -1.24296349e-03
 -6.73654200e-02  1.06821033e+00]
l = 0  e_0 = -15.8370799
l = 0  e_1 = -1.04086778
l = 0  e_2 = 0.136886364
l = 0  e_3 = 1.28301199
l = 1  e_0 = -0.263690114
l = 1  e_1 = 0.16482884
l = 1  e_2 = 1.04996609
l = 2  e_0 = 0.657892667
l = 2  e_1 = 2.39532316
l = 0  occ = 2 + 0
l = 1  occ = 0 + 1
l = 2  occ = 0 + 0
l = 3  occ = 0 + 0
E1 = -73.1382411729253  E_coul = 19.295636532765652
cycle= 6 E= -53.8426046401596  delta_E= -7.31e-11  |g|=    0  |ddm|= 8.51e-06
    CPU time for cycle= 6      4.56 sec, wall time      0.80 sec
diis-norm(errvec)=3.88963e-07
diis-c [-2.84541369e-16 -2.07037839e-06  1.53684781e-05 -1.30004534e-04
  5.17340654e-03 -8.90442220e-02  1.08398752e+00]
l = 0  e_0 = -15.8370804
l = 0  e_1 = -1.0408682
l = 0  e_2 = 0.136886329
l = 0  e_3 = 1.28301192
l = 1  e_0 = -0.263690432
l = 1  e_1 = 0.164828861
l = 1  e_2 = 1.04996597
l = 2  e_0 = 0.657892556
l = 2  e_1 = 2.39532295
l = 0  occ = 2 + 0
l = 1  occ = 0 + 1
l = 2  occ = 0 + 0
l = 3  occ = 0 + 0
E1 = -73.13824084052632  E_coul = 19.295636200366488
cycle= 7 E= -53.8426046401598  delta_E= -1.85e-13  |g|=    0  |ddm|= 2.97e-07
    CPU time for cycle= 7      4.60 sec, wall time      0.71 sec
diis-norm(errvec)=5.52723e-09
Linear dependence found in DIIS error vectors.
diis-c [-9.54397622e-16 -8.70509661e-07  7.15447752e-06 -6.06280448e-05
  2.36966107e-03 -4.07629967e-02  4.96522688e-01  5.41924991e-01]
l = 0  e_0 = -15.8370804
l = 0  e_1 = -1.0408682
l = 0  e_2 = 0.136886328
l = 0  e_3 = 1.28301192
l = 1  e_0 = -0.263690434
l = 1  e_1 = 0.164828861
l = 1  e_2 = 1.04996597
l = 2  e_0 = 0.657892555
l = 2  e_1 = 2.39532295
l = 0  occ = 2 + 0
l = 1  occ = 0 + 1
l = 2  occ = 0 + 0
l = 3  occ = 0 + 0
E1 = -73.13824084330032  E_coul = 19.295636203140603
cycle= 8 E= -53.8426046401597  delta_E= 1.14e-13  |g|=    0  |ddm|= 5.2e-09
    CPU time for cycle= 8      4.49 sec, wall time      0.80 sec
diis-norm(errvec)=2.80852e-09
Linear dependence found in DIIS error vectors.
diis-c [-8.02247280e-16 -5.38171088e-07  4.67901303e-06 -3.96827178e-05
  1.53683310e-03 -2.64277939e-02  3.22013301e-01  3.51457659e-01
  3.51455543e-01]
l = 0  e_0 = -15.8370804
l = 0  e_1 = -1.0408682
l = 0  e_2 = 0.136886328
l = 0  e_3 = 1.28301192
l = 1  e_0 = -0.263690434
l = 1  e_1 = 0.164828861
l = 1  e_2 = 1.04996597
l = 2  e_0 = 0.657892555
l = 2  e_1 = 2.39532295
l = 0  occ = 2 + 0
l = 1  occ = 0 + 1
l = 2  occ = 0 + 0
l = 3  occ = 0 + 0
E1 = -73.13824084417546  E_coul = 19.295636204015718
cycle= 9 E= -53.8426046401597  delta_E= -1.42e-14  |g|=    0  |ddm|= 1.7e-09
    CPU time for cycle= 9      4.54 sec, wall time      0.71 sec
diis-norm(errvec)=1.92065e-09
Linear dependence found in DIIS error vectors.
diis-c [-2.46139605e-16  2.59654565e-01  3.86947486e-06 -3.31946110e-05
  1.10216498e-03 -1.88786874e-02  2.38888725e-01  2.59616849e-01
  2.59645708e-01]
l = 0  e_0 = -15.8370804
l = 0  e_1 = -1.0408682
l = 0  e_2 = 0.136886328
l = 0  e_3 = 1.28301192
l = 1  e_0 = -0.263690435
l = 1  e_1 = 0.16482886
l = 1  e_2 = 1.04996597
l = 2  e_0 = 0.657892555
l = 2  e_1 = 2.39532295
l = 0  occ = 2 + 0
l = 1  occ = 0 + 1
l = 2  occ = 0 + 0
l = 3  occ = 0 + 0
E1 = -73.13824084681343  E_coul = 19.29563620665366
cycle= 10 E= -53.8426046401598  delta_E= -3.55e-14  |g|=    0  |ddm|= 2.17e-09
    CPU time for cycle= 10      4.84 sec, wall time      0.80 sec
diis-norm(errvec)=8.75246e-10
Linear dependence found in DIIS error vectors.
diis-c [-2.77784444e-16  2.49494697e-01  2.49407999e-01  1.95121596e-08
 -5.15410214e-06 -4.12814590e-05  2.96516961e-03  2.48841681e-01
  2.49336869e-01]
l = 0  e_0 = -15.8370804
l = 0  e_1 = -1.0408682
l = 0  e_2 = 0.136886328
l = 0  e_3 = 1.28301192
l = 1  e_0 = -0.263690435
l = 1  e_1 = 0.164828861
l = 1  e_2 = 1.04996597
l = 2  e_0 = 0.657892555
l = 2  e_1 = 2.39532295
l = 0  occ = 2 + 0
l = 1  occ = 0 + 1
l = 2  occ = 0 + 0
l = 3  occ = 0 + 0
E1 = -73.13824084515043  E_coul = 19.295636204990675
cycle= 11 E= -53.8426046401598  delta_E= 7.11e-15  |g|=    0  |ddm|= 6.23e-10
    CPU time for cycle= 11      4.76 sec, wall time      0.80 sec
diis-norm(errvec)=5.80694e-10
Linear dependence found in DIIS error vectors.
diis-c [ 5.28453128e-18  2.00335148e-01  2.00266237e-01  2.00525839e-01
 -3.09179763e-06  4.09791802e-05 -1.19969289e-03  1.99823345e-01
  2.00211237e-01]
l = 0  e_0 = -15.8370804
l = 0  e_1 = -1.0408682
l = 0  e_2 = 0.136886328
l = 0  e_3 = 1.28301192
l = 1  e_0 = -0.263690436
l = 1  e_1 = 0.164828861
l = 1  e_2 = 1.04996597
l = 2  e_0 = 0.657892555
l = 2  e_1 = 2.39532295
l = 0  occ = 2 + 0
l = 1  occ = 0 + 1
l = 2  occ = 0 + 0
l = 3  occ = 0 + 0
E1 = -73.1382408453689  E_coul = 19.295636205209135
cycle= 12 E= -53.8426046401598  delta_E=    0  |g|=    0  |ddm|= 1.6e-10
    CPU time for cycle= 12      4.95 sec, wall time      0.80 sec
diis-norm(errvec)=4.18768e-10
Linear dependence found in DIIS error vectors.
diis-c [-5.15090296e-17  1.67580197e-01  1.67879974e-01  1.68042940e-01
  1.68119609e-01  1.28103902e-04 -5.33229715e-03  1.66310684e-01
  1.67270790e-01]
l = 0  e_0 = -15.8370804
l = 0  e_1 = -1.0408682
l = 0  e_2 = 0.136886328
l = 0  e_3 = 1.28301192
l = 1  e_0 = -0.263690436
l = 1  e_1 = 0.164828861
l = 1  e_2 = 1.04996597
l = 2  e_0 = 0.657892555
l = 2  e_1 = 2.39532295
l = 0  occ = 2 + 0
l = 1  occ = 0 + 1
l = 2  occ = 0 + 0
l = 3  occ = 0 + 0
E1 = -73.13824084635355  E_coul = 19.29563620619379
cycle= 13 E= -53.8426046401598  delta_E=    0  |g|=    0  |ddm|= 2.6e-10
    CPU time for cycle= 13      4.64 sec, wall time      0.80 sec
diis-norm(errvec)=2.21179e-10
Linear dependence found in DIIS error vectors.
diis-c [ 2.27046017e-16  1.43051068e-01  1.43161185e-01  1.43288101e-01
  1.43333215e-01  1.43392277e-01 -1.50514489e-03  1.42387772e-01
  1.42891527e-01]
l = 0  e_0 = -15.8370804
l = 0  e_1 = -1.0408682
l = 0  e_2 = 0.136886328
l = 0  e_3 = 1.28301192
l = 1  e_0 = -0.263690436
l = 1  e_1 = 0.164828861
l = 1  e_2 = 1.04996597
l = 2  e_0 = 0.657892555
l = 2  e_1 = 2.39532295
l = 0  occ = 2 + 0
l = 1  occ = 0 + 1
l = 2  occ = 0 + 0
l = 3  occ = 0 + 0
E1 = -73.1382408471718  E_coul = 19.295636207012045
cycle= 14 E= -53.8426046401598  delta_E= 7.11e-15  |g|=    0  |ddm|= 5.77e-10
    CPU time for cycle= 14      4.29 sec, wall time      0.71 sec
diis-norm(errvec)=3.77515e-10
Linear dependence found in DIIS error vectors.
diis-c [-2.89052492e-16  1.25000000e-01  1.25000000e-01  1.25000000e-01
  1.25000000e-01  1.25000000e-01  1.25000000e-01  1.25000000e-01
  1.25000000e-01]
l = 0  e_0 = -15.8370804
l = 0  e_1 = -1.0408682
l = 0  e_2 = 0.136886328
l = 0  e_3 = 1.28301192
l = 1  e_0 = -0.263690436
l = 1  e_1 = 0.164828861
l = 1  e_2 = 1.04996597
l = 2  e_0 = 0.657892555
l = 2  e_1 = 2.39532295
l = 0  occ = 2 + 0
l = 1  occ = 0 + 1
l = 2  occ = 0 + 0
l = 3  occ = 0 + 0
E1 = -73.13824084689547  E_coul = 19.295636206735693
cycle= 15 E= -53.8426046401598  delta_E= -2.13e-14  |g|=    0  |ddm|= 2.45e-10
    CPU time for cycle= 15      4.91 sec, wall time      0.88 sec
diis-norm(errvec)=2.53868e-10
Linear dependence found in DIIS error vectors.
diis-c [-2.89052492e-16  1.25000000e-01  1.25000000e-01  1.25000000e-01
  1.25000000e-01  1.25000000e-01  1.25000000e-01  1.25000000e-01
  1.25000000e-01]
l = 0  e_0 = -15.8370804
l = 0  e_1 = -1.0408682
l = 0  e_2 = 0.136886328
l = 0  e_3 = 1.28301192
l = 1  e_0 = -0.263690436
l = 1  e_1 = 0.164828861
l = 1  e_2 = 1.04996597
l = 2  e_0 = 0.657892555
l = 2  e_1 = 2.39532295
l = 0  occ = 2 + 0
l = 1  occ = 0 + 1
l = 2  occ = 0 + 0
l = 3  occ = 0 + 0
E1 = -73.13824084636525  E_coul = 19.29563620620551
cycle= 16 E= -53.8426046401597  delta_E= 4.26e-14  |g|=    0  |ddm|= 9.92e-11
    CPU time for cycle= 16      4.83 sec, wall time      0.80 sec
l = 0  e_0 = -15.8370804
l = 0  e_1 = -1.0408682
l = 0  e_2 = 0.136886328
l = 0  e_3 = 1.28301192
l = 1  e_0 = -0.263690436
l = 1  e_1 = 0.164828861
l = 1  e_2 = 1.04996597
l = 2  e_0 = 0.657892555
l = 2  e_1 = 2.39532295
l = 0  occ = 2 + 0
l = 1  occ = 0 + 1
l = 2  occ = 0 + 0
l = 3  occ = 0 + 0
E1 = -73.13824084583257  E_coul = 19.29563620567281
Extra cycle  E= -53.8426046401598  delta_E= -2.84e-14  |g|=    0  |ddm|= 9.92e-11
    CPU time for scf_cycle     84.48 sec, wall time     14.01 sec
    CPU time for SCF     84.48 sec, wall time     14.01 sec
Atomic HF for atom  N  converged. SCF energy = -53.8426046401598

Atom N, E = -53.8426046402
Nelec from initial guess = (np.float64(3.5), np.float64(3.5))
E1 = -73.13824084583257  Ecoul = 19.295636205672807
init E= -53.8426046401598
    CPU time for initialize scf     93.00 sec, wall time     15.90 sec
alpha HOMO (B1u) = -0.263690435873539  LUMO (Ag) = 0.136886327564792
alpha irrep_nelec = [2, 0, 0, 0, 1, 1, 1]
beta  irrep_nelec = [2, 0, 0, 0, 0, 0, 0]
alpha-Ag nocc = 2  HOMO = -1.04086820030248  LUMO = 0.136886327564792
   mo_energy = [-15.83708036  -1.0408682    0.13688633   0.65789255   0.65789255
   1.28301192   2.39532295   2.39532295]
alpha-B1g nocc = 0
   mo_energy = [0.65789255 2.39532295]
alpha-B2g nocc = 0
   mo_energy = [0.65789255 2.39532295]
alpha-B3g nocc = 0
   mo_energy = [0.65789255 2.39532295]
alpha-B1u nocc = 1  HOMO = -0.263690435873539  LUMO = 0.164828860620238
   mo_energy = [-0.26369044  0.16482886  1.04996597]
alpha-B2u nocc = 1  HOMO = -0.26369043587354  LUMO = 0.164828860620238
   mo_energy = [-0.26369044  0.16482886  1.04996597]
alpha-B3u nocc = 1  HOMO = -0.26369043587354  LUMO = 0.164828860620238
   mo_energy = [-0.26369044  0.16482886  1.04996597]
beta-Ag nocc = 2  HOMO = -1.04086820030248  LUMO = 0.136886327564792
   mo_energy = [-15.83708036  -1.0408682    0.13688633   0.65789255   0.65789255
   1.28301192   2.39532295   2.39532295]
beta-B1g nocc = 0
   mo_energy = [0.65789255 2.39532295]
beta-B2g nocc = 0
   mo_energy = [0.65789255 2.39532295]
beta-B3g nocc = 0
   mo_energy = [0.65789255 2.39532295]
beta-B1u nocc = 0
   mo_energy = [-0.26369044  0.16482886  1.04996597]
beta-B2u nocc = 0
   mo_energy = [-0.26369044  0.16482886  1.04996597]
beta-B3u nocc = 0
   mo_energy = [-0.26369044  0.16482886  1.04996597]
multiplicity <S^2> = 3.75  2S+1 = 4
E1 = -73.13824084606837  Ecoul = 18.781006128593496
cycle= 1 E= -54.3572347174749  delta_E= -0.515  |g|= 0.178  |ddm|= 0.402
    CPU time for cycle= 1      5.13 sec, wall time      0.80 sec
diis-norm(errvec)=0.251652
diis-c [-0.0633289  1.       ]
alpha HOMO (B1u) = -0.616214965241207  LUMO (Ag) = 0.121145685195378
alpha irrep_nelec = [2, 0, 0, 0, 1, 1, 1]
beta  irrep_nelec = [2, 0, 0, 0, 0, 0, 0]
alpha-Ag nocc = 2  HOMO = -1.23260480710134  LUMO = 0.121145685195378
   mo_energy = [-15.87233523  -1.23260481   0.12114569   0.61783026   0.61783026
   1.2347195    2.31775892   2.31775892]
alpha-B1g nocc = 0
   mo_energy = [0.61783026 2.31775892]
alpha-B2g nocc = 0
   mo_energy = [0.61783026 2.31775892]
alpha-B3g nocc = 0
   mo_energy = [0.61783026 2.31775892]
alpha-B1u nocc = 1  HOMO = -0.616214965241207  LUMO = 0.148105524696873
   mo_energy = [-0.61621497  0.14810552  0.98154982]
alpha-B2u nocc = 1  HOMO = -0.616214965241207  LUMO = 0.148105524696873
   mo_energy = [-0.61621497  0.14810552  0.98154982]
alpha-B3u nocc = 1  HOMO = -0.616214965241207  LUMO = 0.148105524696873
   mo_energy = [-0.61621497  0.14810552  0.98154982]
beta-Ag nocc = 2  HOMO = -0.849463150124142  LUMO = 0.152173861823869
   mo_energy = [-15.80209001  -0.84946315   0.15217386   0.69656201   0.69656201
   1.33235351   2.47427981   2.47427981]
beta-B1g nocc = 0
   mo_energy = [0.69656201 2.47427981]
beta-B2g nocc = 0
   mo_energy = [0.69656201 2.47427981]
beta-B3g nocc = 0
   mo_energy = [0.69656201 2.47427981]
beta-B1u nocc = 0
   mo_energy = [0.04567657 0.21343101 1.12966083]
beta-B2u nocc = 0
   mo_energy = [0.04567657 0.21343101 1.12966083]
beta-B3u nocc = 0
   mo_energy = [0.04567657 0.21343101 1.12966083]
multiplicity <S^2> = 3.7506742  2S+1 = 4.0003371
E1 = -73.9208880574501  Ecoul = 19.531688395974957
cycle= 2 E= -54.3891996614751  delta_E= -0.032  |g|= 0.0636  |ddm|= 0.184
    CPU time for cycle= 2     10.83 sec, wall time      1.80 sec
diis-norm(errvec)=0.0899207
diis-c [-0.00805124  0.02437251  0.97562749]
alpha HOMO (B1u) = -0.564960935152397  LUMO (Ag) = 0.136413560693114
alpha irrep_nelec = [2, 0, 0, 0, 1, 1, 1]
beta  irrep_nelec = [2, 0, 0, 0, 0, 0, 0]
alpha-Ag nocc = 2  HOMO = -1.1631352960948  LUMO = 0.136413560693114
   mo_energy = [-15.67750636  -1.1631353    0.13641356   0.6478762    0.6478762
   1.28940433   2.38210762   2.38210762]
alpha-B1g nocc = 0
   mo_energy = [0.6478762  2.38210762]
alpha-B2g nocc = 0
   mo_energy = [0.6478762  2.38210762]
alpha-B3g nocc = 0
   mo_energy = [0.6478762  2.38210762]
alpha-B1u nocc = 1  HOMO = -0.564960935152397  LUMO = 0.155364247015312
   mo_energy = [-0.56496094  0.15536425  1.03159215]
alpha-B2u nocc = 1  HOMO = -0.564960935152398  LUMO = 0.155364247015311
   mo_energy = [-0.56496094  0.15536425  1.03159215]
alpha-B3u nocc = 1  HOMO = -0.564960935152398  LUMO = 0.155364247015312
   mo_energy = [-0.56496094  0.15536425  1.03159215]
beta-Ag nocc = 2  HOMO = -0.749676477316787  LUMO = 0.161575131803688
   mo_energy = [-15.59289728  -0.74967648   0.16157513   0.71484104   0.71484104
   1.39896293   2.55538205   2.55538205]
beta-B1g nocc = 0
   mo_energy = [0.71484104 2.55538205]
beta-B2g nocc = 0
   mo_energy = [0.71484104 2.55538205]
beta-B3g nocc = 0
   mo_energy = [0.71484104 2.55538205]
beta-B1u nocc = 0
   mo_energy = [0.08222148 0.26031248 1.21503278]
beta-B2u nocc = 0
   mo_energy = [0.08222148 0.26031248 1.21503278]
beta-B3u nocc = 0
   mo_energy = [0.08222148 0.26031248 1.21503278]
multiplicity <S^2> = 3.7532117  2S+1 = 4.0016055
E1 = -73.87648977731924  Ecoul = 19.484011195819757
cycle= 3 E= -54.3924785814995  delta_E= -0.00328  |g|= 0.0228  |ddm|= 0.173
    CPU time for cycle= 3     10.58 sec, wall time      1.80 sec
diis-norm(errvec)=0.032209
diis-c [-1.87937913e-04 -8.49732259e-02 -3.35387223e-01  1.42036045e+00]
alpha HOMO (B3u) = -0.569273746907578  LUMO (Ag) = 0.139606177167122
alpha irrep_nelec = [2, 0, 0, 0, 1, 1, 1]
beta  irrep_nelec = [2, 0, 0, 0, 0, 0, 0]
alpha-Ag nocc = 2  HOMO = -1.16249598188289  LUMO = 0.139606177167122
   mo_energy = [-15.67769386  -1.16249598   0.13960618   0.65280972   0.65280972
   1.29300134   2.38371401   2.38371401]
alpha-B1g nocc = 0
   mo_energy = [0.65280972 2.38371401]
alpha-B2g nocc = 0
   mo_energy = [0.65280972 2.38371401]
alpha-B3g nocc = 0
   mo_energy = [0.65280972 2.38371401]
alpha-B1u nocc = 1  HOMO = -0.56927374690758  LUMO = 0.156165243542294
   mo_energy = [-0.56927375  0.15616524  1.03208867]
alpha-B2u nocc = 1  HOMO = -0.569273746907581  LUMO = 0.156165243542293
   mo_energy = [-0.56927375  0.15616524  1.03208867]
alpha-B3u nocc = 1  HOMO = -0.569273746907578  LUMO = 0.156165243542294
   mo_energy = [-0.56927375  0.15616524  1.03208867]
beta-Ag nocc = 2  HOMO = -0.731490150971935  LUMO = 0.164650581947052
   mo_energy = [-15.58724513  -0.73149015   0.16465058   0.71623693   0.71623693
   1.41126609   2.56232423   2.56232423]
beta-B1g nocc = 0
   mo_energy = [0.71623693 2.56232423]
beta-B2g nocc = 0
   mo_energy = [0.71623693 2.56232423]
beta-B3g nocc = 0
   mo_energy = [0.71623693 2.56232423]
beta-B1u nocc = 0
   mo_energy = [0.08316821 0.26525853 1.22201252]
beta-B2u nocc = 0
   mo_energy = [0.08316821 0.26525853 1.22201252]
beta-B3u nocc = 0
   mo_energy = [0.08316821 0.26525853 1.22201252]
multiplicity <S^2> = 3.7563035  2S+1 = 4.0031505
E1 = -73.90658725090493  Ecoul = 19.513416828285937
cycle= 4 E= -54.393170422619  delta_E= -0.000692  |g|= 0.0035  |ddm|= 0.0846
    CPU time for cycle= 4     10.52 sec, wall time      1.71 sec
diis-norm(errvec)=0.00495393
diis-c [-5.73722716e-06  1.60095245e-02  1.14471488e-01 -4.89132468e-01
  1.35865146e+00]
alpha HOMO (B1u) = -0.570523665074809  LUMO (Ag) = 0.138994300377052
alpha irrep_nelec = [2, 0, 0, 0, 1, 1, 1]
beta  irrep_nelec = [2, 0, 0, 0, 0, 0, 0]
alpha-Ag nocc = 2  HOMO = -1.1649018547193  LUMO = 0.138994300377052
   mo_energy = [-15.67982364  -1.16490185   0.1389943    0.65224753   0.65224753
   1.29135699   2.38192482   2.38192482]
alpha-B1g nocc = 0
   mo_energy = [0.65224753 2.38192482]
alpha-B2g nocc = 0
   mo_energy = [0.65224753 2.38192482]
alpha-B3g nocc = 0
   mo_energy = [0.65224753 2.38192482]
alpha-B1u nocc = 1  HOMO = -0.570523665074809  LUMO = 0.155611055304251
   mo_energy = [-0.57052367  0.15561106  1.03049727]
alpha-B2u nocc = 1  HOMO = -0.57052366507481  LUMO = 0.155611055304251
   mo_energy = [-0.57052367  0.15561106  1.03049727]
alpha-B3u nocc = 1  HOMO = -0.57052366507481  LUMO = 0.155611055304252
   mo_energy = [-0.57052367  0.15561106  1.03049727]
beta-Ag nocc = 2  HOMO = -0.730578601170013  LUMO = 0.164443215929461
   mo_energy = [-15.58787098  -0.7305786    0.16444322   0.71511807   0.71511807
   1.41063253   2.56088299   2.56088299]
beta-B1g nocc = 0
   mo_energy = [0.71511807 2.56088299]
beta-B2g nocc = 0
   mo_energy = [0.71511807 2.56088299]
beta-B3g nocc = 0
   mo_energy = [0.71511807 2.56088299]
beta-B1u nocc = 0
   mo_energy = [0.08225972 0.2646479  1.22104951]
beta-B2u nocc = 0
   mo_energy = [0.08225972 0.2646479  1.22104951]
beta-B3u nocc = 0
   mo_energy = [0.08225972 0.2646479  1.22104951]
multiplicity <S^2> = 3.7570219  2S+1 = 4.0035094
E1 = -73.91265039054585  Ecoul = 19.519467147893238
cycle= 5 E= -54.3931832426526  delta_E= -1.28e-05  |g|= 0.000365  |ddm|= 0.00838
    CPU time for cycle= 5     10.44 sec, wall time      1.79 sec
diis-norm(errvec)=0.000516856
diis-c [-1.70959051e-08  2.47043925e-04 -1.26045169e-02  4.96654328e-02
 -2.25550325e-01  1.18824237e+00]
alpha HOMO (B1u) = -0.570533030228585  LUMO (Ag) = 0.138979985957056
alpha irrep_nelec = [2, 0, 0, 0, 1, 1, 1]
beta  irrep_nelec = [2, 0, 0, 0, 0, 0, 0]
alpha-Ag nocc = 2  HOMO = -1.16501298890082  LUMO = 0.138979985957056
   mo_energy = [-15.67966561  -1.16501299   0.13897999   0.65226086   0.65226086
   1.29132974   2.38199001   2.38199001]
alpha-B1g nocc = 0
   mo_energy = [0.65226086 2.38199001]
alpha-B2g nocc = 0
   mo_energy = [0.65226086 2.38199001]
alpha-B3g nocc = 0
   mo_energy = [0.65226086 2.38199001]
alpha-B1u nocc = 1  HOMO = -0.570533030228585  LUMO = 0.155663507413379
   mo_energy = [-0.57053303  0.15566351  1.03056645]
alpha-B2u nocc = 1  HOMO = -0.570533030228585  LUMO = 0.155663507413378
   mo_energy = [-0.57053303  0.15566351  1.03056645]
alpha-B3u nocc = 1  HOMO = -0.570533030228585  LUMO = 0.155663507413378
   mo_energy = [-0.57053303  0.15566351  1.03056645]
beta-Ag nocc = 2  HOMO = -0.730523514346441  LUMO = 0.164497407766563
   mo_energy = [-15.58765254  -0.73052351   0.16449741   0.71512604   0.71512604
   1.41079254   2.56095806   2.56095806]
beta-B1g nocc = 0
   mo_energy = [0.71512604 2.56095806]
beta-B2g nocc = 0
   mo_energy = [0.71512604 2.56095806]
beta-B3g nocc = 0
   mo_energy = [0.71512604 2.56095806]
beta-B1u nocc = 0
   mo_energy = [0.08227114 0.26470008 1.22115783]
beta-B2u nocc = 0
   mo_energy = [0.08227114 0.26470008 1.22115783]
beta-B3u nocc = 0
   mo_energy = [0.08227114 0.26470008 1.22115783]
multiplicity <S^2> = 3.757075  2S+1 = 4.003536
E1 = -73.91190631924736  Ecoul = 19.51872293003342
cycle= 6 E= -54.3931833892139  delta_E= -1.47e-07  |g|= 1.73e-05  |ddm|= 0.00104
    CPU time for cycle= 6     10.54 sec, wall time      1.71 sec
diis-norm(errvec)=2.45286e-05
diis-c [-1.64904232e-10 -7.04026798e-05  1.94168787e-03 -7.25931188e-03
  3.57389575e-02 -2.00697870e-01  1.17034694e+00]
alpha HOMO (B1u) = -0.570533688849134  LUMO (Ag) = 0.138978862218311
alpha irrep_nelec = [2, 0, 0, 0, 1, 1, 1]
beta  irrep_nelec = [2, 0, 0, 0, 0, 0, 0]
alpha-Ag nocc = 2  HOMO = -1.16501563720171  LUMO = 0.138978862218311
   mo_energy = [-15.67966994  -1.16501564   0.13897886   0.65225967   0.65225967
   1.2913269    2.38198948   2.38198948]
alpha-B1g nocc = 0
   mo_energy = [0.65225967 2.38198948]
alpha-B2g nocc = 0
   mo_energy = [0.65225967 2.38198948]
alpha-B3g nocc = 0
   mo_energy = [0.65225967 2.38198948]
alpha-B1u nocc = 1  HOMO = -0.570533688849134  LUMO = 0.155663801642743
   mo_energy = [-0.57053369  0.1556638   1.03056709]
alpha-B2u nocc = 1  HOMO = -0.570533688849134  LUMO = 0.155663801642743
   mo_energy = [-0.57053369  0.1556638   1.03056709]
alpha-B3u nocc = 1  HOMO = -0.570533688849135  LUMO = 0.155663801642743
   mo_energy = [-0.57053369  0.1556638   1.03056709]
beta-Ag nocc = 2  HOMO = -0.730523547490656  LUMO = 0.164494339364448
   mo_energy = [-15.58765966  -0.73052355   0.16449434   0.71512622   0.71512622
   1.41078571   2.56095512   2.56095512]
beta-B1g nocc = 0
   mo_energy = [0.71512622 2.56095512]
beta-B2g nocc = 0
   mo_energy = [0.71512622 2.56095512]
beta-B3g nocc = 0
   mo_energy = [0.71512622 2.56095512]
beta-B1u nocc = 0
   mo_energy = [0.08227251 0.26469696 1.22115461]
beta-B2u nocc = 0
   mo_energy = [0.08227251 0.26469696 1.22115461]
beta-B3u nocc = 0
   mo_energy = [0.08227251 0.26469696 1.22115461]
multiplicity <S^2> = 3.7570722  2S+1 = 4.0035345
E1 = -73.91190561477738  Ecoul = 19.518722225138962
cycle= 7 E= -54.3931833896384  delta_E= -4.24e-10  |g|= 1.56e-06  |ddm|= 2.89e-05
    CPU time for cycle= 7     11.39 sec, wall time      2.21 sec
diis-norm(errvec)=2.21166e-06
diis-c [-1.53870629e-13  5.10971321e-06 -1.77069258e-04  6.42351171e-04
 -2.86610457e-03  1.72848358e-02 -1.58206292e-01  1.14331717e+00]
alpha HOMO (B2u) = -0.570532157510374  LUMO (Ag) = 0.138978818776044
alpha irrep_nelec = [2, 0, 0, 0, 1, 1, 1]
beta  irrep_nelec = [2, 0, 0, 0, 0, 0, 0]
alpha-Ag nocc = 2  HOMO = -1.16501421866911  LUMO = 0.138978818776044
   mo_energy = [-15.67966814  -1.16501422   0.13897882   0.6522599    0.6522599
   1.29132759   2.38199046   2.38199046]
alpha-B1g nocc = 0
   mo_energy = [0.6522599  2.38199046]
alpha-B2g nocc = 0
   mo_energy = [0.6522599  2.38199046]
alpha-B3g nocc = 0
   mo_energy = [0.6522599  2.38199046]
alpha-B1u nocc = 1  HOMO = -0.570532157510375  LUMO = 0.155663698250169
   mo_energy = [-0.57053216  0.1556637   1.03056749]
alpha-B2u nocc = 1  HOMO = -0.570532157510374  LUMO = 0.155663698250168
   mo_energy = [-0.57053216  0.1556637   1.03056749]
alpha-B3u nocc = 1  HOMO = -0.570532157510376  LUMO = 0.155663698250169
   mo_energy = [-0.57053216  0.1556637   1.03056749]
beta-Ag nocc = 2  HOMO = -0.730525107941556  LUMO = 0.164494656696035
   mo_energy = [-15.58765768  -0.73052511   0.16449466   0.71512654   0.71512654
   1.41078688   2.5609557    2.5609557 ]
beta-B1g nocc = 0
   mo_energy = [0.71512654 2.5609557 ]
beta-B2g nocc = 0
   mo_energy = [0.71512654 2.5609557 ]
beta-B3g nocc = 0
   mo_energy = [0.71512654 2.5609557 ]
beta-B1u nocc = 0
   mo_energy = [0.08227292 0.26469704 1.22115546]
beta-B2u nocc = 0
   mo_energy = [0.08227292 0.26469704 1.22115546]
beta-B3u nocc = 0
   mo_energy = [0.08227292 0.26469704 1.22115546]
multiplicity <S^2> = 3.7570718  2S+1 = 4.0035344
E1 = -73.91190493642772  Ecoul = 19.518721546785713
cycle= 8 E= -54.393183389642  delta_E= -3.58e-12  |g|= 5.54e-08  |ddm|= 3.09e-06
    CPU time for cycle= 8     10.53 sec, wall time      1.68 sec
diis-norm(errvec)=7.83555e-08
diis-c [-2.37621279e-15 -4.71463993e-07  1.71667767e-05 -6.03211790e-05
  2.59971743e-04 -1.65979331e-03  1.62037470e-02 -1.34652511e-01
  1.11989221e+00]
alpha HOMO (B2u) = -0.570532218275949  LUMO (Ag) = 0.138978810615743
alpha irrep_nelec = [2, 0, 0, 0, 1, 1, 1]
beta  irrep_nelec = [2, 0, 0, 0, 0, 0, 0]
alpha-Ag nocc = 2  HOMO = -1.16501425998878  LUMO = 0.138978810615743
   mo_energy = [-15.67966819  -1.16501426   0.13897881   0.65225988   0.65225988
   1.29132757   2.38199042   2.38199042]
alpha-B1g nocc = 0
   mo_energy = [0.65225988 2.38199042]
alpha-B2g nocc = 0
   mo_energy = [0.65225988 2.38199042]
alpha-B3g nocc = 0
   mo_energy = [0.65225988 2.38199042]
alpha-B1u nocc = 1  HOMO = -0.57053221827595  LUMO = 0.155663702384678
   mo_energy = [-0.57053222  0.1556637   1.03056747]
alpha-B2u nocc = 1  HOMO = -0.570532218275949  LUMO = 0.155663702384678
   mo_energy = [-0.57053222  0.1556637   1.03056747]
alpha-B3u nocc = 1  HOMO = -0.57053221827595  LUMO = 0.155663702384678
   mo_energy = [-0.57053222  0.1556637   1.03056747]
beta-Ag nocc = 2  HOMO = -0.730525013336993  LUMO = 0.164494616992496
   mo_energy = [-15.58765773  -0.73052501   0.16449462   0.71512652   0.71512652
   1.41078678   2.56095567   2.56095567]
beta-B1g nocc = 0
   mo_energy = [0.71512652 2.56095567]
beta-B2g nocc = 0
   mo_energy = [0.71512652 2.56095567]
beta-B3g nocc = 0
   mo_energy = [0.71512652 2.56095567]
beta-B1u nocc = 0
   mo_energy = [0.08227291 0.26469703 1.22115542]
beta-B2u nocc = 0
   mo_energy = [0.08227291 0.26469703 1.22115542]
beta-B3u nocc = 0
   mo_energy = [0.08227291 0.26469703 1.22115542]
multiplicity <S^2> = 3.7570718  2S+1 = 4.0035344
E1 = -73.91190492980172  Ecoul = 19.518721540159707
cycle= 9 E= -54.393183389642  delta_E= -1.42e-14  |g|= 5.03e-09  |ddm|= 5.76e-08
    CPU time for cycle= 9     10.33 sec, wall time      1.71 sec
diis-norm(errvec)=7.11634e-09
Linear dependence found in DIIS error vectors.
diis-c [-8.18329671e-16  5.36287907e-01  4.04097611e-06 -1.39554252e-05
  5.23156907e-05 -3.43214890e-04  3.99137764e-03 -3.98206769e-02
  4.99842206e-01]
alpha HOMO (B2u) = -0.570532216110589  LUMO (Ag) = 0.138978809850746
alpha irrep_nelec = [2, 0, 0, 0, 1, 1, 1]
beta  irrep_nelec = [2, 0, 0, 0, 0, 0, 0]
alpha-Ag nocc = 2  HOMO = -1.16501425859385  LUMO = 0.138978809850746
   mo_energy = [-15.6796682   -1.16501426   0.13897881   0.65225988   0.65225988
   1.29132757   2.38199042   2.38199042]
alpha-B1g nocc = 0
   mo_energy = [0.65225988 2.38199042]
alpha-B2g nocc = 0
   mo_energy = [0.65225988 2.38199042]
alpha-B3g nocc = 0
   mo_energy = [0.65225988 2.38199042]
alpha-B1u nocc = 1  HOMO = -0.570532216110589  LUMO = 0.155663701401304
   mo_energy = [-0.57053222  0.1556637   1.03056747]
alpha-B2u nocc = 1  HOMO = -0.570532216110589  LUMO = 0.155663701401303
   mo_energy = [-0.57053222  0.1556637   1.03056747]
alpha-B3u nocc = 1  HOMO = -0.570532216110589  LUMO = 0.155663701401303
   mo_energy = [-0.57053222  0.1556637   1.03056747]
beta-Ag nocc = 2  HOMO = -0.73052502395118  LUMO = 0.164494619066598
   mo_energy = [-15.58765773  -0.73052502   0.16449462   0.71512652   0.71512652
   1.41078679   2.56095567   2.56095567]
beta-B1g nocc = 0
   mo_energy = [0.71512652 2.56095567]
beta-B2g nocc = 0
   mo_energy = [0.71512652 2.56095567]
beta-B3g nocc = 0
   mo_energy = [0.71512652 2.56095567]
beta-B1u nocc = 0
   mo_energy = [0.08227291 0.26469703 1.22115542]
beta-B2u nocc = 0
   mo_energy = [0.08227291 0.26469703 1.22115542]
beta-B3u nocc = 0
   mo_energy = [0.08227291 0.26469703 1.22115542]
multiplicity <S^2> = 3.7570718  2S+1 = 4.0035344
E1 = -73.91190493049812  Ecoul = 19.518721540856134
cycle= 10 E= -54.393183389642  delta_E= 2.84e-14  |g|= 3.73e-09  |ddm|= 4.88e-09
    CPU time for cycle= 10     10.68 sec, wall time      1.79 sec
diis-norm(errvec)=5.27878e-09
Linear dependence found in DIIS error vectors.
diis-c [-4.83403076e-16  3.41777780e-01  3.41944939e-01  7.41785873e-07
 -6.47478741e-06 -4.75774015e-07  7.88818166e-04 -1.39155432e-02
  3.29410215e-01]
alpha HOMO (B2u) = -0.570532214361883  LUMO (Ag) = 0.138978810212891
alpha irrep_nelec = [2, 0, 0, 0, 1, 1, 1]
beta  irrep_nelec = [2, 0, 0, 0, 0, 0, 0]
alpha-Ag nocc = 2  HOMO = -1.16501425626861  LUMO = 0.138978810212891
   mo_energy = [-15.67966819  -1.16501426   0.13897881   0.65225988   0.65225988
   1.29132757   2.38199043   2.38199043]
alpha-B1g nocc = 0
   mo_energy = [0.65225988 2.38199043]
alpha-B2g nocc = 0
   mo_energy = [0.65225988 2.38199043]
alpha-B3g nocc = 0
   mo_energy = [0.65225988 2.38199043]
alpha-B1u nocc = 1  HOMO = -0.570532214361884  LUMO = 0.155663701735511
   mo_energy = [-0.57053221  0.1556637   1.03056747]
alpha-B2u nocc = 1  HOMO = -0.570532214361883  LUMO = 0.155663701735511
   mo_energy = [-0.57053221  0.1556637   1.03056747]
alpha-B3u nocc = 1  HOMO = -0.570532214361883  LUMO = 0.155663701735511
   mo_energy = [-0.57053221  0.1556637   1.03056747]
beta-Ag nocc = 2  HOMO = -0.730525025322788  LUMO = 0.164494620095385
   mo_energy = [-15.58765773  -0.73052503   0.16449462   0.71512652   0.71512652
   1.41078679   2.56095567   2.56095567]
beta-B1g nocc = 0
   mo_energy = [0.71512652 2.56095567]
beta-B2g nocc = 0
   mo_energy = [0.71512652 2.56095567]
beta-B3g nocc = 0
   mo_energy = [0.71512652 2.56095567]
beta-B1u nocc = 0
   mo_energy = [0.08227291 0.26469703 1.22115542]
beta-B2u nocc = 0
   mo_energy = [0.08227291 0.26469703 1.22115542]
beta-B3u nocc = 0
   mo_energy = [0.08227291 0.26469703 1.22115542]
multiplicity <S^2> = 3.7570718  2S+1 = 4.0035344
E1 = -73.91190492456573  Ecoul = 19.518721534923742
cycle= 11 E= -54.393183389642  delta_E=    0  |g|= 3.02e-09  |ddm|= 3.47e-09
    CPU time for cycle= 11     10.94 sec, wall time      1.81 sec
diis-norm(errvec)=4.26405e-09
Linear dependence found in DIIS error vectors.
diis-c [-4.31882271e-16  2.51835615e-01  2.51947239e-01  2.52124454e-01
 -1.12364646e-06 -7.36051997e-06  6.77908584e-05 -4.61043736e-03
  2.48643823e-01]
alpha HOMO (B2u) = -0.570532215188628  LUMO (Ag) = 0.138978810375414
alpha irrep_nelec = [2, 0, 0, 0, 1, 1, 1]
beta  irrep_nelec = [2, 0, 0, 0, 0, 0, 0]
alpha-Ag nocc = 2  HOMO = -1.16501425656156  LUMO = 0.138978810375414
   mo_energy = [-15.67966819  -1.16501426   0.13897881   0.65225988   0.65225988
   1.29132757   2.38199042   2.38199042]
alpha-B1g nocc = 0
   mo_energy = [0.65225988 2.38199042]
alpha-B2g nocc = 0
   mo_energy = [0.65225988 2.38199042]
alpha-B3g nocc = 0
   mo_energy = [0.65225988 2.38199042]
alpha-B1u nocc = 1  HOMO = -0.570532215188629  LUMO = 0.155663701749166
   mo_energy = [-0.57053222  0.1556637   1.03056747]
alpha-B2u nocc = 1  HOMO = -0.570532215188628  LUMO = 0.155663701749166
   mo_energy = [-0.57053222  0.1556637   1.03056747]
alpha-B3u nocc = 1  HOMO = -0.570532215188628  LUMO = 0.155663701749166
   mo_energy = [-0.57053222  0.1556637   1.03056747]
beta-Ag nocc = 2  HOMO = -0.730525024688466  LUMO = 0.164494620310427
   mo_energy = [-15.58765773  -0.73052502   0.16449462   0.71512652   0.71512652
   1.41078679   2.56095567   2.56095567]
beta-B1g nocc = 0
   mo_energy = [0.71512652 2.56095567]
beta-B2g nocc = 0
   mo_energy = [0.71512652 2.56095567]
beta-B3g nocc = 0
   mo_energy = [0.71512652 2.56095567]
beta-B1u nocc = 0
   mo_energy = [0.08227291 0.26469703 1.22115542]
beta-B2u nocc = 0
   mo_energy = [0.08227291 0.26469703 1.22115542]
beta-B3u nocc = 0
   mo_energy = [0.08227291 0.26469703 1.22115542]
multiplicity <S^2> = 3.7570718  2S+1 = 4.0035344
E1 = -73.91190492717907  Ecoul = 19.518721537537076
cycle= 12 E= -54.393183389642  delta_E=    0  |g|= 3.34e-09  |ddm|= 6.19e-09
    CPU time for cycle= 12     10.59 sec, wall time      1.79 sec
diis-norm(errvec)=4.71836e-09
Linear dependence found in DIIS error vectors.
diis-c [-3.09801349e-16  2.00543590e-01  2.00590326e-01  2.00850729e-01
  2.00835329e-01 -9.52846275e-06 -5.26829672e-06 -2.35340863e-03
  1.99548231e-01]
alpha HOMO (B2u) = -0.570532215607634  LUMO (Ag) = 0.138978810159103
alpha irrep_nelec = [2, 0, 0, 0, 1, 1, 1]
beta  irrep_nelec = [2, 0, 0, 0, 0, 0, 0]
alpha-Ag nocc = 2  HOMO = -1.1650142570395  LUMO = 0.138978810159103
   mo_energy = [-15.67966819  -1.16501426   0.13897881   0.65225988   0.65225988
   1.29132757   2.38199042   2.38199042]
alpha-B1g nocc = 0
   mo_energy = [0.65225988 2.38199042]
alpha-B2g nocc = 0
   mo_energy = [0.65225988 2.38199042]
alpha-B3g nocc = 0
   mo_energy = [0.65225988 2.38199042]
alpha-B1u nocc = 1  HOMO = -0.570532215607635  LUMO = 0.155663701690324
   mo_energy = [-0.57053222  0.1556637   1.03056747]
alpha-B2u nocc = 1  HOMO = -0.570532215607634  LUMO = 0.155663701690323
   mo_energy = [-0.57053222  0.1556637   1.03056747]
alpha-B3u nocc = 1  HOMO = -0.570532215607635  LUMO = 0.155663701690323
   mo_energy = [-0.57053222  0.1556637   1.03056747]
beta-Ag nocc = 2  HOMO = -0.730525026110304  LUMO = 0.164494620134259
   mo_energy = [-15.58765773  -0.73052503   0.16449462   0.71512652   0.71512652
   1.41078679   2.56095567   2.56095567]
beta-B1g nocc = 0
   mo_energy = [0.71512652 2.56095567]
beta-B2g nocc = 0
   mo_energy = [0.71512652 2.56095567]
beta-B3g nocc = 0
   mo_energy = [0.71512652 2.56095567]
beta-B1u nocc = 0
   mo_energy = [0.08227291 0.26469703 1.22115542]
beta-B2u nocc = 0
   mo_energy = [0.08227291 0.26469703 1.22115542]
beta-B3u nocc = 0
   mo_energy = [0.08227291 0.26469703 1.22115542]
multiplicity <S^2> = 3.7570718  2S+1 = 4.0035344
E1 = -73.91190492621209  Ecoul = 19.51872153657009
cycle= 13 E= -54.393183389642  delta_E= -7.11e-15  |g|= 2.61e-09  |ddm|= 4.13e-09
    CPU time for cycle= 13     10.26 sec, wall time      1.70 sec
diis-norm(errvec)=3.68651e-09
Linear dependence found in DIIS error vectors.
diis-c [-1.06721358e-15  1.66652721e-01  1.66738411e-01  1.66892958e-01
  1.66882946e-01  1.66883621e-01 -1.42520063e-04 -7.31037971e-04
  1.66822900e-01]
alpha HOMO (B3u) = -0.570532214931968  LUMO (Ag) = 0.138978810271446
alpha irrep_nelec = [2, 0, 0, 0, 1, 1, 1]
beta  irrep_nelec = [2, 0, 0, 0, 0, 0, 0]
alpha-Ag nocc = 2  HOMO = -1.16501425600033  LUMO = 0.138978810271446
   mo_energy = [-15.67966819  -1.16501426   0.13897881   0.65225988   0.65225988
   1.29132757   2.38199042   2.38199042]
alpha-B1g nocc = 0
   mo_energy = [0.65225988 2.38199042]
alpha-B2g nocc = 0
   mo_energy = [0.65225988 2.38199042]
alpha-B3g nocc = 0
   mo_energy = [0.65225988 2.38199042]
alpha-B1u nocc = 1  HOMO = -0.570532214931968  LUMO = 0.15566370173298
   mo_energy = [-0.57053221  0.1556637   1.03056747]
alpha-B2u nocc = 1  HOMO = -0.570532214931968  LUMO = 0.15566370173298
   mo_energy = [-0.57053221  0.1556637   1.03056747]
alpha-B3u nocc = 1  HOMO = -0.570532214931968  LUMO = 0.15566370173298
   mo_energy = [-0.57053221  0.1556637   1.03056747]
beta-Ag nocc = 2  HOMO = -0.730525025743951  LUMO = 0.164494620156992
   mo_energy = [-15.58765773  -0.73052503   0.16449462   0.71512652   0.71512652
   1.41078679   2.56095567   2.56095567]
beta-B1g nocc = 0
   mo_energy = [0.71512652 2.56095567]
beta-B2g nocc = 0
   mo_energy = [0.71512652 2.56095567]
beta-B3g nocc = 0
   mo_energy = [0.71512652 2.56095567]
beta-B1u nocc = 0
   mo_energy = [0.08227291 0.26469703 1.22115542]
beta-B2u nocc = 0
   mo_energy = [0.08227291 0.26469703 1.22115542]
beta-B3u nocc = 0
   mo_energy = [0.08227291 0.26469703 1.22115542]
multiplicity <S^2> = 3.7570718  2S+1 = 4.0035344
E1 = -73.91190492500156  Ecoul = 19.518721535359564
cycle= 14 E= -54.393183389642  delta_E= -7.11e-15  |g|= 2.5e-09  |ddm|= 2.45e-09
    CPU time for cycle= 14     10.81 sec, wall time      1.80 sec
diis-norm(errvec)=3.53834e-09
Linear dependence found in DIIS error vectors.
diis-c [-2.28871317e-16  1.43244126e-01  1.43247290e-01  1.43297583e-01
  1.43273201e-01  1.43286789e-01  1.43315399e-01 -1.66811035e-03
  1.42003723e-01]
alpha HOMO (B3u) = -0.570532215088893  LUMO (Ag) = 0.138978810234981
alpha irrep_nelec = [2, 0, 0, 0, 1, 1, 1]
beta  irrep_nelec = [2, 0, 0, 0, 0, 0, 0]
alpha-Ag nocc = 2  HOMO = -1.16501425600577  LUMO = 0.138978810234981
   mo_energy = [-15.67966819  -1.16501426   0.13897881   0.65225988   0.65225988
   1.29132757   2.38199042   2.38199042]
alpha-B1g nocc = 0
   mo_energy = [0.65225988 2.38199042]
alpha-B2g nocc = 0
   mo_energy = [0.65225988 2.38199042]
alpha-B3g nocc = 0
   mo_energy = [0.65225988 2.38199042]
alpha-B1u nocc = 1  HOMO = -0.570532215088893  LUMO = 0.155663701713125
   mo_energy = [-0.57053222  0.1556637   1.03056747]
alpha-B2u nocc = 1  HOMO = -0.570532215088893  LUMO = 0.155663701713125
   mo_energy = [-0.57053222  0.1556637   1.03056747]
alpha-B3u nocc = 1  HOMO = -0.570532215088893  LUMO = 0.155663701713125
   mo_energy = [-0.57053222  0.1556637   1.03056747]
beta-Ag nocc = 2  HOMO = -0.730525025866736  LUMO = 0.164494620135702
   mo_energy = [-15.58765773  -0.73052503   0.16449462   0.71512652   0.71512652
   1.41078679   2.56095567   2.56095567]
beta-B1g nocc = 0
   mo_energy = [0.71512652 2.56095567]
beta-B2g nocc = 0
   mo_energy = [0.71512652 2.56095567]
beta-B3g nocc = 0
   mo_energy = [0.71512652 2.56095567]
beta-B1u nocc = 0
   mo_energy = [0.08227291 0.26469703 1.22115542]
beta-B2u nocc = 0
   mo_energy = [0.08227291 0.26469703 1.22115542]
beta-B3u nocc = 0
   mo_energy = [0.08227291 0.26469703 1.22115542]
multiplicity <S^2> = 3.7570718  2S+1 = 4.0035344
E1 = -73.91190492493867  Ecoul = 19.518721535296667
cycle= 15 E= -54.393183389642  delta_E=    0  |g|= 2.32e-09  |ddm|= 9.16e-10
    CPU time for cycle= 15     10.53 sec, wall time      1.79 sec
diis-norm(errvec)=3.27732e-09
Linear dependence found in DIIS error vectors.
diis-c [9.95255666e-17 1.25000000e-01 1.25000000e-01 1.25000000e-01
 1.25000000e-01 1.25000000e-01 1.25000000e-01 1.25000000e-01
 1.25000000e-01]
alpha HOMO (B3u) = -0.570532215263055  LUMO (Ag) = 0.13897881020847
alpha irrep_nelec = [2, 0, 0, 0, 1, 1, 1]
beta  irrep_nelec = [2, 0, 0, 0, 0, 0, 0]
alpha-Ag nocc = 2  HOMO = -1.1650142562204  LUMO = 0.13897881020847
   mo_energy = [-15.67966819  -1.16501426   0.13897881   0.65225988   0.65225988
   1.29132757   2.38199042   2.38199042]
alpha-B1g nocc = 0
   mo_energy = [0.65225988 2.38199042]
alpha-B2g nocc = 0
   mo_energy = [0.65225988 2.38199042]
alpha-B3g nocc = 0
   mo_energy = [0.65225988 2.38199042]
alpha-B1u nocc = 1  HOMO = -0.570532215263055  LUMO = 0.15566370169176
   mo_energy = [-0.57053222  0.1556637   1.03056747]
alpha-B2u nocc = 1  HOMO = -0.570532215263055  LUMO = 0.15566370169176
   mo_energy = [-0.57053222  0.1556637   1.03056747]
alpha-B3u nocc = 1  HOMO = -0.570532215263055  LUMO = 0.15566370169176
   mo_energy = [-0.57053222  0.1556637   1.03056747]
beta-Ag nocc = 2  HOMO = -0.730525025332688  LUMO = 0.164494620176844
   mo_energy = [-15.58765773  -0.73052503   0.16449462   0.71512652   0.71512652
   1.41078679   2.56095567   2.56095567]
beta-B1g nocc = 0
   mo_energy = [0.71512652 2.56095567]
beta-B2g nocc = 0
   mo_energy = [0.71512652 2.56095567]
beta-B3g nocc = 0
   mo_energy = [0.71512652 2.56095567]
beta-B1u nocc = 0
   mo_energy = [0.08227291 0.26469703 1.22115542]
beta-B2u nocc = 0
   mo_energy = [0.08227291 0.26469703 1.22115542]
beta-B3u nocc = 0
   mo_energy = [0.08227291 0.26469703 1.22115542]
multiplicity <S^2> = 3.7570718  2S+1 = 4.0035344
E1 = -73.91190492509283  Ecoul = 19.518721535450833
cycle= 16 E= -54.393183389642  delta_E= 1.42e-14  |g|= 2.39e-09  |ddm|= 1.55e-09
    CPU time for cycle= 16     10.36 sec, wall time      1.70 sec
diis-norm(errvec)=3.3822e-09
Linear dependence found in DIIS error vectors.
diis-c [-2.89052492e-16  1.25000000e-01  1.25000000e-01  1.25000000e-01
  1.25000000e-01  1.25000000e-01  1.25000000e-01  1.25000000e-01
  1.25000000e-01]
alpha HOMO (B3u) = -0.570532215308785  LUMO (Ag) = 0.138978809768667
alpha irrep_nelec = [2, 0, 0, 0, 1, 1, 1]
beta  irrep_nelec = [2, 0, 0, 0, 0, 0, 0]
alpha-Ag nocc = 2  HOMO = -1.16501425638006  LUMO = 0.138978809768667
   mo_energy = [-15.67966819  -1.16501426   0.13897881   0.65225988   0.65225988
   1.29132757   2.38199042   2.38199042]
alpha-B1g nocc = 0
   mo_energy = [0.65225988 2.38199042]
alpha-B2g nocc = 0
   mo_energy = [0.65225988 2.38199042]
alpha-B3g nocc = 0
   mo_energy = [0.65225988 2.38199042]
alpha-B1u nocc = 1  HOMO = -0.570532215308785  LUMO = 0.155663701578099
   mo_energy = [-0.57053222  0.1556637   1.03056747]
alpha-B2u nocc = 1  HOMO = -0.570532215308785  LUMO = 0.1556637015781
   mo_energy = [-0.57053222  0.1556637   1.03056747]
alpha-B3u nocc = 1  HOMO = -0.570532215308785  LUMO = 0.1556637015781
   mo_energy = [-0.57053222  0.1556637   1.03056747]
beta-Ag nocc = 2  HOMO = -0.730525026566907  LUMO = 0.164494619978031
   mo_energy = [-15.58765773  -0.73052503   0.16449462   0.71512652   0.71512652
   1.41078679   2.56095567   2.56095567]
beta-B1g nocc = 0
   mo_energy = [0.71512652 2.56095567]
beta-B2g nocc = 0
   mo_energy = [0.71512652 2.56095567]
beta-B3g nocc = 0
   mo_energy = [0.71512652 2.56095567]
beta-B1u nocc = 0
   mo_energy = [0.08227291 0.26469703 1.22115542]
beta-B2u nocc = 0
   mo_energy = [0.08227291 0.26469703 1.22115542]
beta-B3u nocc = 0
   mo_energy = [0.08227291 0.26469703 1.22115542]
multiplicity <S^2> = 3.7570718  2S+1 = 4.0035344
E1 = -73.91190492280018  Ecoul = 19.518721533158136
cycle= 17 E= -54.393183389642  delta_E= -4.97e-14  |g|= 8.1e-10  |ddm|= 1.99e-09
    CPU time for cycle= 17     10.89 sec, wall time      1.80 sec
diis-norm(errvec)=1.14501e-09
Linear dependence found in DIIS error vectors.
diis-c [-2.89052492e-16  1.25000000e-01  1.25000000e-01  1.25000000e-01
  1.25000000e-01  1.25000000e-01  1.25000000e-01  1.25000000e-01
  1.25000000e-01]
alpha HOMO (B3u) = -0.570532215404308  LUMO (Ag) = 0.138978809745707
alpha irrep_nelec = [2, 0, 0, 0, 1, 1, 1]
beta  irrep_nelec = [2, 0, 0, 0, 0, 0, 0]
alpha-Ag nocc = 2  HOMO = -1.1650142564154  LUMO = 0.138978809745707
   mo_energy = [-15.67966819  -1.16501426   0.13897881   0.65225988   0.65225988
   1.29132757   2.38199042   2.38199042]
alpha-B1g nocc = 0
   mo_energy = [0.65225988 2.38199042]
alpha-B2g nocc = 0
   mo_energy = [0.65225988 2.38199042]
alpha-B3g nocc = 0
   mo_energy = [0.65225988 2.38199042]
alpha-B1u nocc = 1  HOMO = -0.570532215404308  LUMO = 0.15566370156685
   mo_energy = [-0.57053222  0.1556637   1.03056747]
alpha-B2u nocc = 1  HOMO = -0.570532215404308  LUMO = 0.15566370156685
   mo_energy = [-0.57053222  0.1556637   1.03056747]
alpha-B3u nocc = 1  HOMO = -0.570532215404308  LUMO = 0.15566370156685
   mo_energy = [-0.57053222  0.1556637   1.03056747]
beta-Ag nocc = 2  HOMO = -0.730525026689931  LUMO = 0.164494619962951
   mo_energy = [-15.58765773  -0.73052503   0.16449462   0.71512652   0.71512652
   1.41078679   2.56095567   2.56095567]
beta-B1g nocc = 0
   mo_energy = [0.71512652 2.56095567]
beta-B2g nocc = 0
   mo_energy = [0.71512652 2.56095567]
beta-B3g nocc = 0
   mo_energy = [0.71512652 2.56095567]
beta-B1u nocc = 0
   mo_energy = [0.08227291 0.26469703 1.22115542]
beta-B2u nocc = 0
   mo_energy = [0.08227291 0.26469703 1.22115542]
beta-B3u nocc = 0
   mo_energy = [0.08227291 0.26469703 1.22115542]
multiplicity <S^2> = 3.7570718  2S+1 = 4.0035344
E1 = -73.91190492277738  Ecoul = 19.51872153313537
cycle= 18 E= -54.393183389642  delta_E= 2.84e-14  |g|= 7.09e-10  |ddm|= 2.6e-10
    CPU time for cycle= 18     10.98 sec, wall time      1.92 sec
diis-norm(errvec)=1.00333e-09
Linear dependence found in DIIS error vectors.
diis-c [-2.89052492e-16  1.25000000e-01  1.25000000e-01  1.25000000e-01
  1.25000000e-01  1.25000000e-01  1.25000000e-01  1.25000000e-01
  1.25000000e-01]
alpha HOMO (B1u) = -0.57053221549603  LUMO (Ag) = 0.138978809720985
alpha irrep_nelec = [2, 0, 0, 0, 1, 1, 1]
beta  irrep_nelec = [2, 0, 0, 0, 0, 0, 0]
alpha-Ag nocc = 2  HOMO = -1.16501425648118  LUMO = 0.138978809720985
   mo_energy = [-15.67966819  -1.16501426   0.13897881   0.65225988   0.65225988
   1.29132757   2.38199042   2.38199042]
alpha-B1g nocc = 0
   mo_energy = [0.65225988 2.38199042]
alpha-B2g nocc = 0
   mo_energy = [0.65225988 2.38199042]
alpha-B3g nocc = 0
   mo_energy = [0.65225988 2.38199042]
alpha-B1u nocc = 1  HOMO = -0.57053221549603  LUMO = 0.155663701556618
   mo_energy = [-0.57053222  0.1556637   1.03056747]
alpha-B2u nocc = 1  HOMO = -0.570532215496031  LUMO = 0.155663701556619
   mo_energy = [-0.57053222  0.1556637   1.03056747]
alpha-B3u nocc = 1  HOMO = -0.57053221549603  LUMO = 0.155663701556618
   mo_energy = [-0.57053222  0.1556637   1.03056747]
beta-Ag nocc = 2  HOMO = -0.730525026820141  LUMO = 0.164494619947843
   mo_energy = [-15.58765773  -0.73052503   0.16449462   0.71512652   0.71512652
   1.41078679   2.56095567   2.56095567]
beta-B1g nocc = 0
   mo_energy = [0.71512652 2.56095567]
beta-B2g nocc = 0
   mo_energy = [0.71512652 2.56095567]
beta-B3g nocc = 0
   mo_energy = [0.71512652 2.56095567]
beta-B1u nocc = 0
   mo_energy = [0.08227291 0.26469703 1.22115542]
beta-B2u nocc = 0
   mo_energy = [0.08227291 0.26469703 1.22115542]
beta-B3u nocc = 0
   mo_energy = [0.08227291 0.26469703 1.22115542]
multiplicity <S^2> = 3.7570718  2S+1 = 4.0035344
E1 = -73.91190492277718  Ecoul = 19.518721533135185
cycle= 19 E= -54.393183389642  delta_E= 1.42e-14  |g|= 6.28e-10  |ddm|= 1.32e-10
    CPU time for cycle= 19     10.73 sec, wall time      1.77 sec
diis-norm(errvec)=8.88663e-10
Linear dependence found in DIIS error vectors.
diis-c [-2.89052492e-16  1.25000000e-01  1.25000000e-01  1.25000000e-01
  1.25000000e-01  1.25000000e-01  1.25000000e-01  1.25000000e-01
  1.25000000e-01]
alpha HOMO (B1u) = -0.570532215527673  LUMO (Ag) = 0.138978809704195
alpha irrep_nelec = [2, 0, 0, 0, 1, 1, 1]
beta  irrep_nelec = [2, 0, 0, 0, 0, 0, 0]
alpha-Ag nocc = 2  HOMO = -1.16501425649109  LUMO = 0.138978809704195
   mo_energy = [-15.67966819  -1.16501426   0.13897881   0.65225988   0.65225988
   1.29132757   2.38199042   2.38199042]
alpha-B1g nocc = 0
   mo_energy = [0.65225988 2.38199042]
alpha-B2g nocc = 0
   mo_energy = [0.65225988 2.38199042]
alpha-B3g nocc = 0
   mo_energy = [0.65225988 2.38199042]
alpha-B1u nocc = 1  HOMO = -0.570532215527673  LUMO = 0.155663701550065
   mo_energy = [-0.57053222  0.1556637   1.03056747]
alpha-B2u nocc = 1  HOMO = -0.570532215527673  LUMO = 0.155663701550065
   mo_energy = [-0.57053222  0.1556637   1.03056747]
alpha-B3u nocc = 1  HOMO = -0.570532215527673  LUMO = 0.155663701550065
   mo_energy = [-0.57053222  0.1556637   1.03056747]
beta-Ag nocc = 2  HOMO = -0.7305250268666  LUMO = 0.164494619940365
   mo_energy = [-15.58765773  -0.73052503   0.16449462   0.71512652   0.71512652
   1.41078679   2.56095567   2.56095567]
beta-B1g nocc = 0
   mo_energy = [0.71512652 2.56095567]
beta-B2g nocc = 0
   mo_energy = [0.71512652 2.56095567]
beta-B3g nocc = 0
   mo_energy = [0.71512652 2.56095567]
beta-B1u nocc = 0
   mo_energy = [0.08227291 0.26469703 1.22115542]
beta-B2u nocc = 0
   mo_energy = [0.08227291 0.26469703 1.22115542]
beta-B3u nocc = 0
   mo_energy = [0.08227291 0.26469703 1.22115542]
multiplicity <S^2> = 3.7570718  2S+1 = 4.0035344
E1 = -73.911904922719  Ecoul = 19.51872153307699
cycle= 20 E= -54.393183389642  delta_E= -1.42e-14  |g|= 5.73e-10  |ddm|= 7.7e-11
    CPU time for cycle= 20     10.55 sec, wall time      1.71 sec
diis-norm(errvec)=8.10361e-10
Linear dependence found in DIIS error vectors.
diis-c [-2.89052492e-16  1.25000000e-01  1.25000000e-01  1.25000000e-01
  1.25000000e-01  1.25000000e-01  1.25000000e-01  1.25000000e-01
  1.25000000e-01]
alpha HOMO (B1u) = -0.570532215564668  LUMO (Ag) = 0.138978809676754
alpha irrep_nelec = [2, 0, 0, 0, 1, 1, 1]
beta  irrep_nelec = [2, 0, 0, 0, 0, 0, 0]
alpha-Ag nocc = 2  HOMO = -1.16501425652528  LUMO = 0.138978809676754
   mo_energy = [-15.67966819  -1.16501426   0.13897881   0.65225988   0.65225988
   1.29132757   2.38199042   2.38199042]
alpha-B1g nocc = 0
   mo_energy = [0.65225988 2.38199042]
alpha-B2g nocc = 0
   mo_energy = [0.65225988 2.38199042]
alpha-B3g nocc = 0
   mo_energy = [0.65225988 2.38199042]
alpha-B1u nocc = 1  HOMO = -0.570532215564668  LUMO = 0.155663701542151
   mo_energy = [-0.57053222  0.1556637   1.03056747]
alpha-B2u nocc = 1  HOMO = -0.570532215564669  LUMO = 0.155663701542151
   mo_energy = [-0.57053222  0.1556637   1.03056747]
alpha-B3u nocc = 1  HOMO = -0.570532215564668  LUMO = 0.155663701542151
   mo_energy = [-0.57053222  0.1556637   1.03056747]
beta-Ag nocc = 2  HOMO = -0.730525027008052  LUMO = 0.16449461992184
   mo_energy = [-15.58765773  -0.73052503   0.16449462   0.71512652   0.71512652
   1.41078679   2.56095567   2.56095567]
beta-B1g nocc = 0
   mo_energy = [0.71512652 2.56095567]
beta-B2g nocc = 0
   mo_energy = [0.71512652 2.56095567]
beta-B3g nocc = 0
   mo_energy = [0.71512652 2.56095567]
beta-B1u nocc = 0
   mo_energy = [0.08227291 0.26469703 1.22115542]
beta-B2u nocc = 0
   mo_energy = [0.08227291 0.26469703 1.22115542]
beta-B3u nocc = 0
   mo_energy = [0.08227291 0.26469703 1.22115542]
multiplicity <S^2> = 3.7570718  2S+1 = 4.0035344
E1 = -73.91190492258019  Ecoul = 19.51872153293819
cycle= 21 E= -54.393183389642  delta_E= 7.11e-15  |g|= 4.65e-10  |ddm|= 3.55e-10
    CPU time for cycle= 21     10.50 sec, wall time      1.79 sec
diis-norm(errvec)=6.57811e-10
Linear dependence found in DIIS error vectors.
diis-c [-2.89052492e-16  1.25000000e-01  1.25000000e-01  1.25000000e-01
  1.25000000e-01  1.25000000e-01  1.25000000e-01  1.25000000e-01
  1.25000000e-01]
alpha HOMO (B1u) = -0.570532215602961  LUMO (Ag) = 0.138978809655074
alpha irrep_nelec = [2, 0, 0, 0, 1, 1, 1]
beta  irrep_nelec = [2, 0, 0, 0, 0, 0, 0]
alpha-Ag nocc = 2  HOMO = -1.16501425655862  LUMO = 0.138978809655074
   mo_energy = [-15.67966819  -1.16501426   0.13897881   0.65225988   0.65225988
   1.29132757   2.38199042   2.38199042]
alpha-B1g nocc = 0
   mo_energy = [0.65225988 2.38199042]
alpha-B2g nocc = 0
   mo_energy = [0.65225988 2.38199042]
alpha-B3g nocc = 0
   mo_energy = [0.65225988 2.38199042]
alpha-B1u nocc = 1  HOMO = -0.570532215602961  LUMO = 0.155663701535168
   mo_energy = [-0.57053222  0.1556637   1.03056747]
alpha-B2u nocc = 1  HOMO = -0.570532215602961  LUMO = 0.155663701535169
   mo_energy = [-0.57053222  0.1556637   1.03056747]
alpha-B3u nocc = 1  HOMO = -0.570532215602961  LUMO = 0.155663701535168
   mo_energy = [-0.57053222  0.1556637   1.03056747]
beta-Ag nocc = 2  HOMO = -0.730525027101573  LUMO = 0.164494619909383
   mo_energy = [-15.58765773  -0.73052503   0.16449462   0.71512652   0.71512652
   1.41078679   2.56095567   2.56095567]
beta-B1g nocc = 0
   mo_energy = [0.71512652 2.56095567]
beta-B2g nocc = 0
   mo_energy = [0.71512652 2.56095567]
beta-B3g nocc = 0
   mo_energy = [0.71512652 2.56095567]
beta-B1u nocc = 0
   mo_energy = [0.08227291 0.26469703 1.22115542]
beta-B2u nocc = 0
   mo_energy = [0.08227291 0.26469703 1.22115542]
beta-B3u nocc = 0
   mo_energy = [0.08227291 0.26469703 1.22115542]
multiplicity <S^2> = 3.7570718  2S+1 = 4.0035344
E1 = -73.91190492250361  Ecoul = 19.51872153286161
cycle= 22 E= -54.393183389642  delta_E=    0  |g|= 3.92e-10  |ddm|= 1.68e-10
    CPU time for cycle= 22     10.51 sec, wall time      1.71 sec
diis-norm(errvec)=5.54351e-10
Linear dependence found in DIIS error vectors.
diis-c [-2.89052492e-16  1.25000000e-01  1.25000000e-01  1.25000000e-01
  1.25000000e-01  1.25000000e-01  1.25000000e-01  1.25000000e-01
  1.25000000e-01]
alpha HOMO (B1u) = -0.570532215633252  LUMO (Ag) = 0.138978809633011
alpha irrep_nelec = [2, 0, 0, 0, 1, 1, 1]
beta  irrep_nelec = [2, 0, 0, 0, 0, 0, 0]
alpha-Ag nocc = 2  HOMO = -1.16501425659248  LUMO = 0.138978809633011
   mo_energy = [-15.67966819  -1.16501426   0.13897881   0.65225988   0.65225988
   1.29132757   2.38199042   2.38199042]
alpha-B1g nocc = 0
   mo_energy = [0.65225988 2.38199042]
alpha-B2g nocc = 0
   mo_energy = [0.65225988 2.38199042]
alpha-B3g nocc = 0
   mo_energy = [0.65225988 2.38199042]
alpha-B1u nocc = 1  HOMO = -0.570532215633252  LUMO = 0.155663701528261
   mo_energy = [-0.57053222  0.1556637   1.03056747]
alpha-B2u nocc = 1  HOMO = -0.570532215633253  LUMO = 0.155663701528262
   mo_energy = [-0.57053222  0.1556637   1.03056747]
alpha-B3u nocc = 1  HOMO = -0.570532215633252  LUMO = 0.155663701528261
   mo_energy = [-0.57053222  0.1556637   1.03056747]
beta-Ag nocc = 2  HOMO = -0.730525027168387  LUMO = 0.164494619899366
   mo_energy = [-15.58765773  -0.73052503   0.16449462   0.71512652   0.71512652
   1.41078679   2.56095567   2.56095567]
beta-B1g nocc = 0
   mo_energy = [0.71512652 2.56095567]
beta-B2g nocc = 0
   mo_energy = [0.71512652 2.56095567]
beta-B3g nocc = 0
   mo_energy = [0.71512652 2.56095567]
beta-B1u nocc = 0
   mo_energy = [0.08227291 0.26469703 1.22115542]
beta-B2u nocc = 0
   mo_energy = [0.08227291 0.26469703 1.22115542]
beta-B3u nocc = 0
   mo_energy = [0.08227291 0.26469703 1.22115542]
multiplicity <S^2> = 3.7570718  2S+1 = 4.0035344
E1 = -73.9119049224257  Ecoul = 19.518721532783673
cycle= 23 E= -54.393183389642  delta_E= -2.84e-14  |g|= 3.3e-10  |ddm|= 8.63e-11
    CPU time for cycle= 23     10.66 sec, wall time      1.80 sec
diis-norm(errvec)=4.66005e-10
Linear dependence found in DIIS error vectors.
diis-c [-2.89052492e-16  1.25000000e-01  1.25000000e-01  1.25000000e-01
  1.25000000e-01  1.25000000e-01  1.25000000e-01  1.25000000e-01
  1.25000000e-01]
alpha HOMO (B1u) = -0.570532215661425  LUMO (Ag) = 0.138978809610975
alpha irrep_nelec = [2, 0, 0, 0, 1, 1, 1]
beta  irrep_nelec = [2, 0, 0, 0, 0, 0, 0]
alpha-Ag nocc = 2  HOMO = -1.16501425662888  LUMO = 0.138978809610975
   mo_energy = [-15.67966819  -1.16501426   0.13897881   0.65225988   0.65225988
   1.29132757   2.38199042   2.38199042]
alpha-B1g nocc = 0
   mo_energy = [0.65225988 2.38199042]
alpha-B2g nocc = 0
   mo_energy = [0.65225988 2.38199042]
alpha-B3g nocc = 0
   mo_energy = [0.65225988 2.38199042]
alpha-B1u nocc = 1  HOMO = -0.570532215661425  LUMO = 0.15566370152162
   mo_energy = [-0.57053222  0.1556637   1.03056747]
alpha-B2u nocc = 1  HOMO = -0.570532215661426  LUMO = 0.15566370152162
   mo_energy = [-0.57053222  0.1556637   1.03056747]
alpha-B3u nocc = 1  HOMO = -0.570532215661425  LUMO = 0.15566370152162
   mo_energy = [-0.57053222  0.1556637   1.03056747]
beta-Ag nocc = 2  HOMO = -0.730525027236703  LUMO = 0.164494619889346
   mo_energy = [-15.58765773  -0.73052503   0.16449462   0.71512652   0.71512652
   1.41078679   2.56095567   2.56095567]
beta-B1g nocc = 0
   mo_energy = [0.71512652 2.56095567]
beta-B2g nocc = 0
   mo_energy = [0.71512652 2.56095567]
beta-B3g nocc = 0
   mo_energy = [0.71512652 2.56095567]
beta-B1u nocc = 0
   mo_energy = [0.08227291 0.26469703 1.22115542]
beta-B2u nocc = 0
   mo_energy = [0.08227291 0.26469703 1.22115542]
beta-B3u nocc = 0
   mo_energy = [0.08227291 0.26469703 1.22115542]
multiplicity <S^2> = 3.7570718  2S+1 = 4.0035344
E1 = -73.91190492234853  Ecoul = 19.518721532706508
cycle= 24 E= -54.393183389642  delta_E= 1.42e-14  |g|= 2.71e-10  |ddm|= 8.83e-11
    CPU time for cycle= 24     11.14 sec, wall time      1.93 sec
diis-norm(errvec)=3.82606e-10
Linear dependence found in DIIS error vectors.
diis-c [-2.89052492e-16  1.25000000e-01  1.25000000e-01  1.25000000e-01
  1.25000000e-01  1.25000000e-01  1.25000000e-01  1.25000000e-01
  1.25000000e-01]
alpha HOMO (B1u) = -0.57053221568006  LUMO (Ag) = 0.138978809588289
alpha irrep_nelec = [2, 0, 0, 0, 1, 1, 1]
beta  irrep_nelec = [2, 0, 0, 0, 0, 0, 0]
alpha-Ag nocc = 2  HOMO = -1.16501425665451  LUMO = 0.138978809588289
   mo_energy = [-15.67966819  -1.16501426   0.13897881   0.65225988   0.65225988
   1.29132757   2.38199042   2.38199042]
alpha-B1g nocc = 0
   mo_energy = [0.65225988 2.38199042]
alpha-B2g nocc = 0
   mo_energy = [0.65225988 2.38199042]
alpha-B3g nocc = 0
   mo_energy = [0.65225988 2.38199042]
alpha-B1u nocc = 1  HOMO = -0.57053221568006  LUMO = 0.155663701515616
   mo_energy = [-0.57053222  0.1556637   1.03056747]
alpha-B2u nocc = 1  HOMO = -0.570532215680061  LUMO = 0.155663701515616
   mo_energy = [-0.57053222  0.1556637   1.03056747]
alpha-B3u nocc = 1  HOMO = -0.570532215680061  LUMO = 0.155663701515615
   mo_energy = [-0.57053222  0.1556637   1.03056747]
beta-Ag nocc = 2  HOMO = -0.730525027338858  LUMO = 0.164494619875814
   mo_energy = [-15.58765773  -0.73052503   0.16449462   0.71512652   0.71512652
   1.41078679   2.56095567   2.56095567]
beta-B1g nocc = 0
   mo_energy = [0.71512652 2.56095567]
beta-B2g nocc = 0
   mo_energy = [0.71512652 2.56095567]
beta-B3g nocc = 0
   mo_energy = [0.71512652 2.56095567]
beta-B1u nocc = 0
   mo_energy = [0.08227291 0.26469703 1.22115542]
beta-B2u nocc = 0
   mo_energy = [0.08227291 0.26469703 1.22115542]
beta-B3u nocc = 0
   mo_energy = [0.08227291 0.26469703 1.22115542]
multiplicity <S^2> = 3.7570718  2S+1 = 4.0035344
E1 = -73.9119049222375  Ecoul = 19.518721532595507
cycle= 25 E= -54.393183389642  delta_E= 2.84e-14  |g|= 1.87e-10  |ddm|= 2.19e-10
    CPU time for cycle= 25     10.34 sec, wall time      1.67 sec
diis-norm(errvec)=2.64147e-10
Linear dependence found in DIIS error vectors.
diis-c [-2.89052492e-16  1.25000000e-01  1.25000000e-01  1.25000000e-01
  1.25000000e-01  1.25000000e-01  1.25000000e-01  1.25000000e-01
  1.25000000e-01]
alpha HOMO (B1u) = -0.57053221568434  LUMO (Ag) = 0.138978809582643
alpha irrep_nelec = [2, 0, 0, 0, 1, 1, 1]
beta  irrep_nelec = [2, 0, 0, 0, 0, 0, 0]
alpha-Ag nocc = 2  HOMO = -1.16501425665667  LUMO = 0.138978809582643
   mo_energy = [-15.67966819  -1.16501426   0.13897881   0.65225988   0.65225988
   1.29132757   2.38199042   2.38199042]
alpha-B1g nocc = 0
   mo_energy = [0.65225988 2.38199042]
alpha-B2g nocc = 0
   mo_energy = [0.65225988 2.38199042]
alpha-B3g nocc = 0
   mo_energy = [0.65225988 2.38199042]
alpha-B1u nocc = 1  HOMO = -0.57053221568434  LUMO = 0.155663701513988
   mo_energy = [-0.57053222  0.1556637   1.03056747]
alpha-B2u nocc = 1  HOMO = -0.570532215684341  LUMO = 0.155663701513988
   mo_energy = [-0.57053222  0.1556637   1.03056747]
alpha-B3u nocc = 1  HOMO = -0.57053221568434  LUMO = 0.155663701513988
   mo_energy = [-0.57053222  0.1556637   1.03056747]
beta-Ag nocc = 2  HOMO = -0.730525027365223  LUMO = 0.164494619872148
   mo_energy = [-15.58765773  -0.73052503   0.16449462   0.71512652   0.71512652
   1.41078679   2.56095567   2.56095567]
beta-B1g nocc = 0
   mo_energy = [0.71512652 2.56095567]
beta-B2g nocc = 0
   mo_energy = [0.71512652 2.56095567]
beta-B3g nocc = 0
   mo_energy = [0.71512652 2.56095567]
beta-B1u nocc = 0
   mo_energy = [0.08227291 0.26469703 1.22115542]
beta-B2u nocc = 0
   mo_energy = [0.08227291 0.26469703 1.22115542]
beta-B3u nocc = 0
   mo_energy = [0.08227291 0.26469703 1.22115542]
multiplicity <S^2> = 3.7570718  2S+1 = 4.0035344
E1 = -73.91190492220073  Ecoul = 19.518721532558743
cycle= 26 E= -54.393183389642  delta_E=    0  |g|= 1.63e-10  |ddm|= 6.56e-11
    CPU time for cycle= 26     10.70 sec, wall time      1.80 sec
diis-norm(errvec)=2.31182e-10
Linear dependence found in DIIS error vectors.
diis-c [-2.89052492e-16  1.25000000e-01  1.25000000e-01  1.25000000e-01
  1.25000000e-01  1.25000000e-01  1.25000000e-01  1.25000000e-01
  1.25000000e-01]
alpha HOMO (B1u) = -0.570532215688153  LUMO (Ag) = 0.138978809577289
alpha irrep_nelec = [2, 0, 0, 0, 1, 1, 1]
beta  irrep_nelec = [2, 0, 0, 0, 0, 0, 0]
alpha-Ag nocc = 2  HOMO = -1.16501425666023  LUMO = 0.138978809577289
   mo_energy = [-15.67966819  -1.16501426   0.13897881   0.65225988   0.65225988
   1.29132757   2.38199042   2.38199042]
alpha-B1g nocc = 0
   mo_energy = [0.65225988 2.38199042]
alpha-B2g nocc = 0
   mo_energy = [0.65225988 2.38199042]
alpha-B3g nocc = 0
   mo_energy = [0.65225988 2.38199042]
alpha-B1u nocc = 1  HOMO = -0.570532215688153  LUMO = 0.15566370151253
   mo_energy = [-0.57053222  0.1556637   1.03056747]
alpha-B2u nocc = 1  HOMO = -0.570532215688154  LUMO = 0.155663701512531
   mo_energy = [-0.57053222  0.1556637   1.03056747]
alpha-B3u nocc = 1  HOMO = -0.570532215688153  LUMO = 0.15566370151253
   mo_energy = [-0.57053222  0.1556637   1.03056747]
beta-Ag nocc = 2  HOMO = -0.730525027390723  LUMO = 0.16449461986867
   mo_energy = [-15.58765773  -0.73052503   0.16449462   0.71512652   0.71512652
   1.41078679   2.56095567   2.56095567]
beta-B1g nocc = 0
   mo_energy = [0.71512652 2.56095567]
beta-B2g nocc = 0
   mo_energy = [0.71512652 2.56095567]
beta-B3g nocc = 0
   mo_energy = [0.71512652 2.56095567]
beta-B1u nocc = 0
   mo_energy = [0.08227291 0.26469703 1.22115542]
beta-B2u nocc = 0
   mo_energy = [0.08227291 0.26469703 1.22115542]
beta-B3u nocc = 0
   mo_energy = [0.08227291 0.26469703 1.22115542]
multiplicity <S^2> = 3.7570718  2S+1 = 4.0035344
E1 = -73.91190492216725  Ecoul = 19.51872153252525
cycle= 27 E= -54.393183389642  delta_E= -1.42e-14  |g|= 1.42e-10  |ddm|= 6.47e-11
    CPU time for cycle= 27     10.75 sec, wall time      1.80 sec
diis-norm(errvec)=2.00398e-10
Linear dependence found in DIIS error vectors.
diis-c [-2.89052492e-16  1.25000000e-01  1.25000000e-01  1.25000000e-01
  1.25000000e-01  1.25000000e-01  1.25000000e-01  1.25000000e-01
  1.25000000e-01]
alpha HOMO (B1u) = -0.570532215692055  LUMO (Ag) = 0.138978809572256
alpha irrep_nelec = [2, 0, 0, 0, 1, 1, 1]
beta  irrep_nelec = [2, 0, 0, 0, 0, 0, 0]
alpha-Ag nocc = 2  HOMO = -1.1650142566648  LUMO = 0.138978809572256
   mo_energy = [-15.67966819  -1.16501426   0.13897881   0.65225988   0.65225988
   1.29132757   2.38199042   2.38199042]
alpha-B1g nocc = 0
   mo_energy = [0.65225988 2.38199042]
alpha-B2g nocc = 0
   mo_energy = [0.65225988 2.38199042]
alpha-B3g nocc = 0
   mo_energy = [0.65225988 2.38199042]
alpha-B1u nocc = 1  HOMO = -0.570532215692055  LUMO = 0.155663701511194
   mo_energy = [-0.57053222  0.1556637   1.03056747]
alpha-B2u nocc = 1  HOMO = -0.570532215692056  LUMO = 0.155663701511194
   mo_energy = [-0.57053222  0.1556637   1.03056747]
alpha-B3u nocc = 1  HOMO = -0.570532215692055  LUMO = 0.155663701511194
   mo_energy = [-0.57053222  0.1556637   1.03056747]
beta-Ag nocc = 2  HOMO = -0.730525027415469  LUMO = 0.164494619865367
   mo_energy = [-15.58765773  -0.73052503   0.16449462   0.71512652   0.71512652
   1.41078679   2.56095567   2.56095567]
beta-B1g nocc = 0
   mo_energy = [0.71512652 2.56095567]
beta-B2g nocc = 0
   mo_energy = [0.71512652 2.56095567]
beta-B3g nocc = 0
   mo_energy = [0.71512652 2.56095567]
beta-B1u nocc = 0
   mo_energy = [0.08227291 0.26469703 1.22115542]
beta-B2u nocc = 0
   mo_energy = [0.08227291 0.26469703 1.22115542]
beta-B3u nocc = 0
   mo_energy = [0.08227291 0.26469703 1.22115542]
multiplicity <S^2> = 3.7570718  2S+1 = 4.0035344
E1 = -73.91190492213725  Ecoul = 19.518721532495235
cycle= 28 E= -54.393183389642  delta_E= -1.42e-14  |g|= 1.21e-10  |ddm|= 6.29e-11
    CPU time for cycle= 28     10.22 sec, wall time      1.70 sec
diis-norm(errvec)=1.71689e-10
Linear dependence found in DIIS error vectors.
diis-c [-2.89052492e-16  1.25000000e-01  1.25000000e-01  1.25000000e-01
  1.25000000e-01  1.25000000e-01  1.25000000e-01  1.25000000e-01
  1.25000000e-01]
alpha HOMO (B1u) = -0.570532215695176  LUMO (Ag) = 0.13897880956759
alpha irrep_nelec = [2, 0, 0, 0, 1, 1, 1]
beta  irrep_nelec = [2, 0, 0, 0, 0, 0, 0]
alpha-Ag nocc = 2  HOMO = -1.16501425666917  LUMO = 0.13897880956759
   mo_energy = [-15.67966819  -1.16501426   0.13897881   0.65225988   0.65225988
   1.29132757   2.38199042   2.38199042]
alpha-B1g nocc = 0
   mo_energy = [0.65225988 2.38199042]
alpha-B2g nocc = 0
   mo_energy = [0.65225988 2.38199042]
alpha-B3g nocc = 0
   mo_energy = [0.65225988 2.38199042]
alpha-B1u nocc = 1  HOMO = -0.570532215695176  LUMO = 0.155663701510019
   mo_energy = [-0.57053222  0.1556637   1.03056747]
alpha-B2u nocc = 1  HOMO = -0.570532215695176  LUMO = 0.155663701510019
   mo_energy = [-0.57053222  0.1556637   1.03056747]
alpha-B3u nocc = 1  HOMO = -0.570532215695176  LUMO = 0.155663701510019
   mo_energy = [-0.57053222  0.1556637   1.03056747]
beta-Ag nocc = 2  HOMO = -0.730525027439722  LUMO = 0.164494619862173
   mo_energy = [-15.58765773  -0.73052503   0.16449462   0.71512652   0.71512652
   1.41078679   2.56095567   2.56095567]
beta-B1g nocc = 0
   mo_energy = [0.71512652 2.56095567]
beta-B2g nocc = 0
   mo_energy = [0.71512652 2.56095567]
beta-B3g nocc = 0
   mo_energy = [0.71512652 2.56095567]
beta-B1u nocc = 0
   mo_energy = [0.08227291 0.26469703 1.22115542]
beta-B2u nocc = 0
   mo_energy = [0.08227291 0.26469703 1.22115542]
beta-B3u nocc = 0
   mo_energy = [0.08227291 0.26469703 1.22115542]
multiplicity <S^2> = 3.7570718  2S+1 = 4.0035344
E1 = -73.91190492210816  Ecoul = 19.51872153246618
cycle= 29 E= -54.393183389642  delta_E= 3.55e-14  |g|= 1.02e-10  |ddm|= 6.53e-11
    CPU time for cycle= 29     10.73 sec, wall time      1.79 sec
diis-norm(errvec)=1.43577e-10
Linear dependence found in DIIS error vectors.
diis-c [-2.89052492e-16  1.25000000e-01  1.25000000e-01  1.25000000e-01
  1.25000000e-01  1.25000000e-01  1.25000000e-01  1.25000000e-01
  1.25000000e-01]
alpha HOMO (B1u) = -0.570532215697882  LUMO (Ag) = 0.138978809563712
alpha irrep_nelec = [2, 0, 0, 0, 1, 1, 1]
beta  irrep_nelec = [2, 0, 0, 0, 0, 0, 0]
alpha-Ag nocc = 2  HOMO = -1.16501425667311  LUMO = 0.138978809563712
   mo_energy = [-15.67966819  -1.16501426   0.13897881   0.65225988   0.65225988
   1.29132757   2.38199042   2.38199042]
alpha-B1g nocc = 0
   mo_energy = [0.65225988 2.38199042]
alpha-B2g nocc = 0
   mo_energy = [0.65225988 2.38199042]
alpha-B3g nocc = 0
   mo_energy = [0.65225988 2.38199042]
alpha-B1u nocc = 1  HOMO = -0.570532215697882  LUMO = 0.15566370150903
   mo_energy = [-0.57053222  0.1556637   1.03056747]
alpha-B2u nocc = 1  HOMO = -0.570532215697883  LUMO = 0.15566370150903
   mo_energy = [-0.57053222  0.1556637   1.03056747]
alpha-B3u nocc = 1  HOMO = -0.570532215697883  LUMO = 0.15566370150903
   mo_energy = [-0.57053222  0.1556637   1.03056747]
beta-Ag nocc = 2  HOMO = -0.730525027458949  LUMO = 0.164494619859628
   mo_energy = [-15.58765773  -0.73052503   0.16449462   0.71512652   0.71512652
   1.41078679   2.56095567   2.56095567]
beta-B1g nocc = 0
   mo_energy = [0.71512652 2.56095567]
beta-B2g nocc = 0
   mo_energy = [0.71512652 2.56095567]
beta-B3g nocc = 0
   mo_energy = [0.71512652 2.56095567]
beta-B1u nocc = 0
   mo_energy = [0.08227291 0.26469703 1.22115542]
beta-B2u nocc = 0
   mo_energy = [0.08227291 0.26469703 1.22115542]
beta-B3u nocc = 0
   mo_energy = [0.08227291 0.26469703 1.22115542]
multiplicity <S^2> = 3.7570718  2S+1 = 4.0035343
E1 = -73.91190492208524  Ecoul = 19.518721532443216
cycle= 30 E= -54.393183389642  delta_E= -4.26e-14  |g|= 8.6e-11  |ddm|= 4.95e-11
    CPU time for cycle= 30     10.60 sec, wall time      1.80 sec
diis-norm(errvec)=1.21665e-10
Linear dependence found in DIIS error vectors.
diis-c [-2.89052492e-16  1.25000000e-01  1.25000000e-01  1.25000000e-01
  1.25000000e-01  1.25000000e-01  1.25000000e-01  1.25000000e-01
  1.25000000e-01]
alpha HOMO (B1u) = -0.570532215700197  LUMO (Ag) = 0.138978809560387
alpha irrep_nelec = [2, 0, 0, 0, 1, 1, 1]
beta  irrep_nelec = [2, 0, 0, 0, 0, 0, 0]
alpha-Ag nocc = 2  HOMO = -1.16501425667676  LUMO = 0.138978809560387
   mo_energy = [-15.67966819  -1.16501426   0.13897881   0.65225988   0.65225988
   1.29132757   2.38199042   2.38199042]
alpha-B1g nocc = 0
   mo_energy = [0.65225988 2.38199042]
alpha-B2g nocc = 0
   mo_energy = [0.65225988 2.38199042]
alpha-B3g nocc = 0
   mo_energy = [0.65225988 2.38199042]
alpha-B1u nocc = 1  HOMO = -0.570532215700197  LUMO = 0.155663701508196
   mo_energy = [-0.57053222  0.1556637   1.03056747]
alpha-B2u nocc = 1  HOMO = -0.570532215700197  LUMO = 0.155663701508196
   mo_energy = [-0.57053222  0.1556637   1.03056747]
alpha-B3u nocc = 1  HOMO = -0.570532215700197  LUMO = 0.155663701508196
   mo_energy = [-0.57053222  0.1556637   1.03056747]
beta-Ag nocc = 2  HOMO = -0.730525027475673  LUMO = 0.164494619857434
   mo_energy = [-15.58765773  -0.73052503   0.16449462   0.71512652   0.71512652
   1.41078679   2.56095567   2.56095567]
beta-B1g nocc = 0
   mo_energy = [0.71512652 2.56095567]
beta-B2g nocc = 0
   mo_energy = [0.71512652 2.56095567]
beta-B3g nocc = 0
   mo_energy = [0.71512652 2.56095567]
beta-B1u nocc = 0
   mo_energy = [0.08227291 0.26469703 1.22115542]
beta-B2u nocc = 0
   mo_energy = [0.08227291 0.26469703 1.22115542]
beta-B3u nocc = 0
   mo_energy = [0.08227291 0.26469703 1.22115542]
multiplicity <S^2> = 3.7570718  2S+1 = 4.0035343
E1 = -73.91190492206576  Ecoul = 19.518721532423747
cycle= 31 E= -54.393183389642  delta_E= 1.42e-14  |g|= 7.28e-11  |ddm|= 4.31e-11
    CPU time for cycle= 31     10.72 sec, wall time      1.80 sec
diis-norm(errvec)=1.02989e-10
Linear dependence found in DIIS error vectors.
diis-c [-2.89052492e-16  1.25000000e-01  1.25000000e-01  1.25000000e-01
  1.25000000e-01  1.25000000e-01  1.25000000e-01  1.25000000e-01
  1.25000000e-01]
alpha HOMO (B1u) = -0.570532215701831  LUMO (Ag) = 0.138978809557685
alpha irrep_nelec = [2, 0, 0, 0, 1, 1, 1]
beta  irrep_nelec = [2, 0, 0, 0, 0, 0, 0]
alpha-Ag nocc = 2  HOMO = -1.16501425667951  LUMO = 0.138978809557685
   mo_energy = [-15.67966819  -1.16501426   0.13897881   0.65225988   0.65225988
   1.29132757   2.38199042   2.38199042]
alpha-B1g nocc = 0
   mo_energy = [0.65225988 2.38199042]
alpha-B2g nocc = 0
   mo_energy = [0.65225988 2.38199042]
alpha-B3g nocc = 0
   mo_energy = [0.65225988 2.38199042]
alpha-B1u nocc = 1  HOMO = -0.570532215701831  LUMO = 0.155663701507549
   mo_energy = [-0.57053222  0.1556637   1.03056747]
alpha-B2u nocc = 1  HOMO = -0.570532215701831  LUMO = 0.155663701507549
   mo_energy = [-0.57053222  0.1556637   1.03056747]
alpha-B3u nocc = 1  HOMO = -0.570532215701831  LUMO = 0.155663701507549
   mo_energy = [-0.57053222  0.1556637   1.03056747]
beta-Ag nocc = 2  HOMO = -0.73052502749058  LUMO = 0.164494619855517
[...]
   -0.011609  3a 2b -> 7a 6b                                            
   -0.017908  3a 2b -> 15a 6b                                           
   -0.011925  3a 2b -> 7a 18b                                           
   -0.025933  3a 2b -> 15a 18b                                          
    0.022349  4a 2b -> 10a 4b                                           
    0.018843  4a 2b -> 20a 4b                                           
   -0.013771  4a 2b -> 6a 8b                                            
   -0.025247  4a 2b -> 10a 8b                                           
   -0.010961  4a 2b -> 11a 8b                                           
   -0.024451  4a 2b -> 20a 8b                                           
   -0.011690  4a 2b -> 6a 16b                                           
   -0.013485  4a 2b -> 18a 16b                                          
   -0.011202  4a 2b -> 20a 16b                                          
   -0.021100  4a 2b -> 12a 5b                                           
   -0.016387  4a 2b -> 21a 5b                                           
    0.023836  4a 2b -> 12a 9b                                           
    0.021264  4a 2b -> 21a 9b                                           
   -0.021100  4a 2b -> 14a 3b                                           
   -0.016387  4a 2b -> 23a 3b                                           
    0.023836  4a 2b -> 14a 7b                                           
    0.021264  4a 2b -> 23a 7b                                           
   -0.011609  4a 2b -> 8a 6b                                            
   -0.017908  4a 2b -> 16a 6b                                           
   -0.011925  4a 2b -> 8a 18b                                           
   -0.025933  4a 2b -> 16a 18b                                          
   -0.019577  5a 2b -> 10a 5b                                           
    0.014503  5a 2b -> 11a 5b                                           
    0.015455  5a 2b -> 19a 5b                                           
   -0.010918  5a 2b -> 20a 5b                                           
   -0.013771  5a 2b -> 6a 9b                                            
    0.022116  5a 2b -> 10a 9b                                           
   -0.016384  5a 2b -> 11a 9b                                           
   -0.020054  5a 2b -> 19a 9b                                           
    0.014168  5a 2b -> 20a 9b                                           
   -0.011690  5a 2b -> 6a 17b                                           
   -0.013485  5a 2b -> 18a 17b                                          
   -0.021100  5a 2b -> 12a 4b                                           
   -0.016387  5a 2b -> 21a 4b                                           
    0.023836  5a 2b -> 12a 8b                                           
    0.021264  5a 2b -> 21a 8b                                           
   -0.021100  5a 2b -> 13a 3b                                           
   -0.016387  5a 2b -> 22a 3b                                           
    0.023836  5a 2b -> 13a 7b                                           
    0.021264  5a 2b -> 22a 7b                                           
   -0.011609  5a 2b -> 9a 6b                                            
   -0.017908  5a 2b -> 17a 6b                                           
   -0.011925  5a 2b -> 9a 18b                                           
   -0.025933  5a 2b -> 17a 18b                                          
   -0.010896  4a 5a -> 8a 9a                                            
    0.015257  4a 5a -> 10a 12a                                          
    0.015696  4a 5a -> 9a 16a                                           
   -0.015696  4a 5a -> 8a 17a                                           
   -0.029117  4a 5a -> 16a 17a                                          
    0.010697  4a 5a -> 10a 21a                                          
    0.013493  4a 5a -> 20a 21a                                          
   -0.010896  3a 5a -> 7a 9a                                            
   -0.014086  3a 5a -> 11a 13a                                          
    0.015696  3a 5a -> 9a 15a                                           
   -0.015696  3a 5a -> 7a 17a                                           
   -0.029117  3a 5a -> 15a 17a                                          
    0.010722  3a 5a -> 13a 19a                                          
   -0.014797  3a 5a -> 19a 22a                                          
   -0.010896  3a 4a -> 7a 8a                                            
   -0.012339  3a 4a -> 11a 14a                                          
    0.015696  3a 4a -> 8a 15a                                           
   -0.015696  3a 4a -> 7a 16a                                           
   -0.029117  3a 4a -> 15a 16a                                          
   -0.012136  3a 4a -> 20a 23a                                          
   -0.010072  2a 3a -> 6a 15a                                           
    0.016096  2a 3a -> 15a 18a                                          
   -0.010072  2a 4a -> 6a 16a                                           
    0.016096  2a 4a -> 16a 18a                                          
   -0.010072  2a 5a -> 6a 17a                                           
    0.016096  2a 5a -> 17a 18a                                          

 ************************ 2025-07-07 12:15:20 *************************
 Executing goldstone...

 Generation of CC equations in terms of H and T...
 Generation of antisymmetrized Goldstone diagrams...
 Number of diagrams in T^1 equations:    15
 Number of diagrams in T^2 equations:    37
 Number of diagrams in T^3 equations:    47
 Translation of diagrams to factorized equations...
 Optimizing intermediate calculation...
 Number of floating-point operations per iteration step:   2.1834E+07
 Probable CPU time per iteration step (hours):      0.00
 Required memory (Mbytes):      19.8
 Number of intermediates:                                  69
 Number of intermediates to be stored:                     30
 Length of intermediate file (Mbytes):       0.7

 ************************ 2025-07-07 12:15:20 *************************
 Executing xmrcc...

 **********************************************************************
 CC(                     3 ) calculation 
 
 
 Allocation of4096.0 Mbytes of memory...
 Number of spinorbitals:                    46
 Number of alpha electrons:                        5
 Number of beta electrons:                         2
 Spin multiplicity:                     2
 z-component of spin:  1.5
 Spatial symmetry:                      5
 Convergence criterion:  1.0E-06
 Construction of occupation graphs...
 Number of                     0 -fold excitations:                      1
 Number of                     1 -fold excitations:                     30
 Number of                     2 -fold excitations:                    792
 Number of                     3 -fold excitations:                  11618
 Total number of configurations:                  12441
 Calculation of coupling coefficients...
 Length of intermediate file (Mbytes):       0.9
 
 ======================================================================
 
 Memory requirements /Mbyte/: 
               Minimal        Optimal
 Real*8:          4.2026         6.0916
 Integer:         3.6878
 Total:           7.8904         9.7794
 

 ************************ 2025-07-07 12:15:21 *************************
 Executing mrcc...

 **********************************************************************
 CCSDT calculation                                                      
 
 
 OpenMP parallel version is running.
 Number of CPU cores:  64
 Allocation of    6.1 Mbytes of memory...
 Number of spinorbitals:  46
 Number of alpha electrons:  5
 Number of beta  electrons:  2
 Spin multiplicity: 4
 z-component of spin:  1.5
 Spatial symmetry: 5
 Convergence criterion:  1.0E-06
 Construction of occupation graphs...
 Number of 0-fold excitations: 1
 Number of 1-fold excitations: 30
 Number of 2-fold excitations: 792
 Number of 3-fold excitations: 11618
 Total number of determinants: 12441
 Calculation of coupling coefficients...
 Initial cluster amplitudes are read from unit 16.
 Length of intermediate file (Mbytes):       0.9
 Reading integral list from unit 55...
 Sorting integrals...
 Sorting integrals...
 Sorting integrals...
 Sorting integrals...
 Energy of reference determinant [au]:     -54.393183389642
 Calculation of MP denominators...
 
 Starting CC iteration...
 ======================================================================
 Norm of residual vector:     0.08334636
 CPU time [min]:     1.858                   Wall time [min]:     0.309
 
 Iteration  1  CC energy:   -54.48723914  Energy decrease:   1.4784E-09
 ======================================================================
 Norm of residual vector:     0.01773210
 CPU time [min]:     2.689                   Wall time [min]:     0.447
 
 Iteration  2  CC energy:   -54.48835163  Energy decrease:   0.00111249
 ======================================================================
 Norm of residual vector:     0.00496828
 CPU time [min]:     3.945                   Wall time [min]:     0.657
 
 Iteration  3  CC energy:   -54.48867250  Energy decrease:   0.00032087
 ======================================================================
 Norm of residual vector:     0.00115961
 CPU time [min]:     4.805                   Wall time [min]:     0.801
 
 Iteration  4  CC energy:   -54.48875691  Energy decrease:   0.00008442
 ======================================================================
 Norm of residual vector:     0.00039437
 CPU time [min]:     6.183                   Wall time [min]:     1.031
 
 Iteration  5  CC energy:   -54.48877369  Energy decrease:   0.00001678
 ======================================================================
 Norm of residual vector:     0.00014094
 CPU time [min]:     7.215                   Wall time [min]:     1.202
 
 Iteration  6  CC energy:   -54.48877522  Energy decrease:   0.00000153
 ======================================================================
 Norm of residual vector:     0.00005085
 CPU time [min]:     9.296                   Wall time [min]:     1.549
 
 Iteration  7  CC energy:   -54.48877595  Energy decrease:   0.00000073
 ======================================================================
 Norm of residual vector:     0.00001708
 CPU time [min]:    11.618                   Wall time [min]:     1.936
 
 Iteration  8  CC energy:   -54.48877627  Energy decrease:   0.00000032
 ======================================================================
 Norm of residual vector:     0.00000424
 CPU time [min]:    12.644                   Wall time [min]:     2.107
 
 Iteration  9  CC energy:   -54.48877621  Energy decrease:   0.00000006
 ======================================================================
 Norm of residual vector:     0.00000096
 CPU time [min]:    14.302                   Wall time [min]:     2.384
 
 Iteration 10  CC energy:   -54.48877619  Energy decrease:   0.00000002
 ======================================================================
 
 Iteration has converged in 10 steps.
 
 Final results:
 Total CCSDT energy [au]:                     -54.488776190040
 
 Dominant cluster amplitudes
 Printing threshold:  1.00E-02
 
    1.000000  Reference determinant                                     
    0.010895  3a -> 7a                                                  
    0.010895  4a -> 8a                                                  
    0.010895  5a -> 9a                                                  
   -0.010338  2a 2b -> 6a 6b                                            
   -0.012516  2a 2b -> 18a 6b                                           
   -0.012286  2a 2b -> 6a 18b                                           
   -0.020440  2a 2b -> 18a 18b                                          
   -0.010065  2a 2b -> 19a 19b                                          
   -0.010065  2a 2b -> 20a 20b                                          
   -0.010118  2a 2b -> 21a 21b                                          
   -0.010118  2a 2b -> 22a 22b                                          
   -0.010118  2a 2b -> 23a 23b                                          
   -0.012839  2a 2b -> 7a 7b                                            
   -0.010930  2a 2b -> 15a 7b                                           
   -0.012802  2a 2b -> 15a 15b                                          
   -0.012839  2a 2b -> 8a 8b                                            
   -0.010930  2a 2b -> 16a 8b                                           
   -0.012802  2a 2b -> 16a 16b                                          
   -0.012839  2a 2b -> 9a 9b                                            
   -0.010930  2a 2b -> 17a 9b                                           
   -0.012802  2a 2b -> 17a 17b                                          
   -0.025195  3a 2b -> 11a 3b                                           
   -0.017295  3a 2b -> 19a 3b                                           
   -0.014469  3a 2b -> 6a 7b                                            
    0.028140  3a 2b -> 11a 7b                                           
    0.022442  3a 2b -> 19a 7b                                           
    0.010351  3a 2b -> 20a 7b                                           
   -0.011937  3a 2b -> 6a 15b                                           
   -0.013645  3a 2b -> 18a 15b                                          
    0.010328  3a 2b -> 19a 15b                                          
   -0.021962  3a 2b -> 13a 5b                                           
   -0.016494  3a 2b -> 22a 5b                                           
    0.024529  3a 2b -> 13a 9b                                           
    0.021403  3a 2b -> 22a 9b                                           
   -0.021962  3a 2b -> 14a 4b                                           
   -0.016494  3a 2b -> 23a 4b                                           
    0.024529  3a 2b -> 14a 8b                                           
    0.021403  3a 2b -> 23a 8b                                           
   -0.012575  3a 2b -> 7a 6b                                            
   -0.018469  3a 2b -> 15a 6b                                           
   -0.012252  3a 2b -> 7a 18b                                           
   -0.026229  3a 2b -> 15a 18b                                          
    0.023262  4a 2b -> 10a 4b                                           
    0.010099  4a 2b -> 11a 4b                                           
    0.018966  4a 2b -> 20a 4b                                           
   -0.014469  4a 2b -> 6a 8b                                            
   -0.025981  4a 2b -> 10a 8b                                           
   -0.011279  4a 2b -> 11a 8b                                           
   -0.024611  4a 2b -> 20a 8b                                           
   -0.011937  4a 2b -> 6a 16b                                           
   -0.013645  4a 2b -> 18a 16b                                          
   -0.011326  4a 2b -> 20a 16b                                          
   -0.021962  4a 2b -> 12a 5b                                           
   -0.016494  4a 2b -> 21a 5b                                           
    0.024529  4a 2b -> 12a 9b                                           
    0.021403  4a 2b -> 21a 9b                                           
   -0.021962  4a 2b -> 14a 3b                                           
   -0.016494  4a 2b -> 23a 3b                                           
    0.024529  4a 2b -> 14a 7b                                           
    0.021403  4a 2b -> 23a 7b                                           
   -0.012575  4a 2b -> 8a 6b                                            
   -0.018469  4a 2b -> 16a 6b                                           
   -0.012252  4a 2b -> 8a 18b                                           
   -0.026229  4a 2b -> 16a 18b                                          
   -0.020377  5a 2b -> 10a 5b                                           
    0.015096  5a 2b -> 11a 5b                                           
    0.015556  5a 2b -> 19a 5b                                           
   -0.010990  5a 2b -> 20a 5b                                           
   -0.014469  5a 2b -> 6a 9b                                            
    0.022759  5a 2b -> 10a 9b                                           
   -0.016860  5a 2b -> 11a 9b                                           
   -0.020185  5a 2b -> 19a 9b                                           
    0.014260  5a 2b -> 20a 9b                                           
   -0.011937  5a 2b -> 6a 17b                                           
   -0.013645  5a 2b -> 18a 17b                                          
   -0.021962  5a 2b -> 12a 4b                                           
   -0.016494  5a 2b -> 21a 4b                                           
    0.024529  5a 2b -> 12a 8b                                           
    0.021403  5a 2b -> 21a 8b                                           
   -0.021962  5a 2b -> 13a 3b                                           
   -0.016494  5a 2b -> 22a 3b                                           
    0.024529  5a 2b -> 13a 7b                                           
    0.021403  5a 2b -> 22a 7b                                           
   -0.012575  5a 2b -> 9a 6b                                            
   -0.018469  5a 2b -> 17a 6b                                           
   -0.012252  5a 2b -> 9a 18b                                           
   -0.026229  5a 2b -> 17a 18b                                          
   -0.012007  4a 5a -> 8a 9a                                            
    0.016027  4a 5a -> 10a 12a                                          
    0.016304  4a 5a -> 9a 16a                                           
   -0.016304  4a 5a -> 8a 17a                                           
   -0.029528  4a 5a -> 16a 17a                                          
    0.010695  4a 5a -> 10a 21a                                          
    0.013554  4a 5a -> 20a 21a                                          
   -0.012007  3a 5a -> 7a 9a                                            
   -0.014798  3a 5a -> 11a 13a                                          
    0.016304  3a 5a -> 9a 15a                                           
   -0.016304  3a 5a -> 7a 17a                                           
   -0.029528  3a 5a -> 15a 17a                                          
    0.010719  3a 5a -> 13a 19a                                          
   -0.014864  3a 5a -> 19a 22a                                          
   -0.012007  3a 4a -> 7a 8a                                            
   -0.012962  3a 4a -> 11a 14a                                          
    0.016304  3a 4a -> 8a 15a                                           
   -0.016304  3a 4a -> 7a 16a                                           
   -0.029528  3a 4a -> 15a 16a                                          
   -0.012191  3a 4a -> 20a 23a                                          
   -0.010311  2a 3a -> 6a 15a                                           
    0.016108  2a 3a -> 15a 18a                                          
   -0.010311  2a 4a -> 6a 16a                                           
    0.016108  2a 4a -> 16a 18a                                          
   -0.010311  2a 5a -> 6a 17a                                           
    0.016108  2a 5a -> 17a 18a                                          
 
 ************************ 2025-07-07 12:20:23 *************************
                      Normal termination of mrcc.
 **********************************************************************
