
 **********************************************************************
                          MRCC program system
 **********************************************************************
 
                              Written by
    Mihaly Kallay, Zoltan Rolik, Jozsef Csontos, Istvan Ladjanszki,
       Lorant Szegedy, Bence Ladoczki, Gyula Samu, Klara Petrov,
        Mate Farkas, Peter Nagy, David Mester, and Bence Hegely
 
        Department of Physical Chemistry and Materials Science
            Budapest University of Technology and Economics
                  Budapest P.O.Box 91, H-1521 Hungary
 
                              www.mrcc.hu

 ************************ 2017-10-25 19:06:12 *************************
 Executing minp...

 Reading input from MINP...
 
 Input file:
 
# TITLE
basis=aV5Z-EMSL
uncontract=off
itol=15
calc=CCSDT(Q)
mem=110GB
core=3
cctol=7
ccmaxit=999
scfmaxit=9999
scftype=RHF

scfiguess=ao
rohftype=standard
mult=1
charge=0
rest=2

unit=angs
geom
C
O 1 R
O 1 R 2 OCO

R=1.163
OCO=180


 
 
 Checking keyword combinations...
 
 Keywords:
 
 active=none
 agrid=ld0006-ld0590
 basis=av5z-emsl
 basopt=off
 bpcompo=0.985
 bpcompv=0.98
 bpdfo=0.985
 bpocc=0.985
 bppdo=0.985
 bppdv=0.98
 bpedo=0.985
 bpedv=0.98
 calc=ccsdt(q)
 ccmaxit=999
 ccprog=mrcc
 cctol=7
 charge=0
 cialg=disk
 ciguess=off
 cmpgrp=auto
 core=3
 corembed=off
 dboc=off
 dendec=cholesky
 dens=0
 dfalg=invsqrt
 dfbasis_cor=none
 dfbasis_scf=none
 dfintran=ovirt
 dft=off
 diag=david
 domrad=10.d0
 drpaalg=fit
 ecp=auto
 edisp=off
 embed=off
 epert=none
 eps=0.975
 excrad=0.d0
 excrad_fin=0.000000000D+00
 freq=off
 gauss=spher
 geom=zmat
 gopt=off
 ghost=none
 gtol=7
 grtol=10
 hamilton=dc
 iface=none
 intalg=auto
 itol=15
 lcorthr=loose
 lccrest=off
 lmp2dens=on
 lnoepso=3e-5
 lnoepsv=1e-6
 localcc=off
 locintrf=disk
 maxact=off
 maxex=0
 bfbasis=none
 mem=110gb
 molden=on
 mulmet=0
 mult=1
 nacto=0
 nactv=0
 naf_cor=off
 naf_scf=off
 nafalg=albe
 naftyp=
 nchol=auto
 ndeps=1e-3
 nstate=1
 nsing=0
 ntrip=0
 occ=
 optalg=
 optmaxit=50
 optetol=1e-6
 optgtol=1e-4
 optstol=1e-3
 orblocc=off
 orbloco=off
 orblocv=off
 osveps=1e-3
 ovirt=off
 ovosnorb=80.0
 ptfreq=0.0
 popul=off
 pressure=100000
 qmmm=off
 refdet=none
 rest=2
 rgrid=log3
 rohftype=standard
 scspe=1.d0
 scsps=1.2d0
 scspt=0.33333333333333
 scfalg=auto
 scfdamp=off
 scfdiis=on
 scfdiis_end=9999
 scfdiis_start=1
 scfdiis_step=1
 scfdtol=11
 scfext=10
 scfiguess=ao
 scflshift=off
 scfmaxit=9999
 scftype=rhf
 scftol=7
 spairtol=1e-4
 symm=
 talg=occ
 temp=298.15
 test=off
 tprint=off
 uncontract=off
 unit=angs
 verbosity=2
 wpairtol=0.100000000E-05

 ************************ 2017-10-25 19:06:13 *************************
 Executing integ...

 Allocation of 110.0 Gbytes of memory...
 
 Number of atoms:            3
 Charge:                     0
 Number of electrons:       22
 Number of core electrons:   6
 Spin multiplicity:          1
 
                 Cartesian coordinates [bohr]      Atomic mass [AMU]  Z
   1  C     0.00000000    0.00000000    0.00000000    12.000000       6
   2  O     2.19775148    0.00000000    0.00000000    15.994915       8
   3  O    -2.19775148    0.00000000    0.00000000    15.994915       8
 
 This molecule is linear.
 
 Rotational constants [cm-1]: 
      0.389605559874
 
 Point group: Dxh 
 Computational point group: D2h 
 
 Cartesian coordinates in standard orientation [bohr]
   1  C     0.00000000   -0.00000000   -0.00000000
   2  O     0.00000000    0.00000000   -2.19775148
   3  O     0.00000000    0.00000000    2.19775148
 
 Nuclear repulsion energy [au]:         58.241343908650
 
 
 Basis set information:
 
 Maximum angular momentum: h
 Maximum number of contracted Gaussians:    7
 Maximum number of primitive Gaussians:    15
 Spherical harmonic GTOs are used.
 
    1  C  av5z-emsl [ 15s 9p 5d 4f 3g 2h | 7s 6p 5d 4f 3g 2h ]
    2  O  av5z-emsl [ 15s 9p 5d 4f 3g 2h | 7s 6p 5d 4f 3g 2h ]
    3  O  av5z-emsl [ 15s 9p 5d 4f 3g 2h | 7s 6p 5d 4f 3g 2h ]
 
 Total number of basis functions:   381
 
 
 Character table for point group D2h:
 
          E  C2z C2y C2x  i  Qxy Qxz Qyz 
    Ag    1   1   1   1   1   1   1   1
    B1g   1   1  -1  -1   1   1  -1  -1
    B2g   1  -1   1  -1   1  -1   1  -1
    B3g   1  -1  -1   1   1  -1  -1   1
    Au    1   1   1   1  -1  -1  -1  -1
    B1u   1   1  -1  -1  -1  -1   1   1
    B2u   1  -1   1  -1  -1   1  -1   1
    B3u   1  -1  -1   1  -1   1   1  -1
 
 Number of basis functions per irrep:
    Ag     72
    B1g    30
    B2g    42
    B3g    42
    Au     27
    B1u    66
    B2u    51
    B3u    51
 
 
 Calculation of overlap integrals...
 CPU time [min]:     0.032                   Wall time [min]:     0.034
 Calculation of kinetic energy integrals...
 CPU time [min]:     0.041                   Wall time [min]:     0.035
 Calculation of nuclear attraction integrals...
 CPU time [min]:     0.056                   Wall time [min]:     0.036
 
 Calculation of prescreening integrals...
 CPU time [min]:     0.807                   Wall time [min]:     0.099
 
 Calculation of two-electron integrals...
   1% done.
  14% done.
  29% done.
  41% done.
  58% done.
  79% done.
 100% done.
 CPU time [min]:    57.118                   Wall time [min]:     5.061

 ************************ 2017-10-25 19:11:18 *************************
 Executing scf...

 Allocation of 110.0 Gbytes of memory...
 ======================================================================
 ITERATION STEP   1
 CPU time [min]:     0.028                   Wall time [min]:     0.018
 
 ALPHA OCC:   4   0   1   1   0   3   1   1
 BETA  OCC:   4   0   1   1   0   3   1   1
 ***HARTREE-FOCK ENERGY IN STEP   1 IS    -187.2418051448453582 [AU]
 ======================================================================
 ITERATION STEP   2
 CPU time [min]:     0.296                   Wall time [min]:     0.408
 
 ALPHA OCC:   4   0   1   1   0   3   1   1
 BETA  OCC:   4   0   1   1   0   3   1   1
 ***HARTREE-FOCK ENERGY IN STEP   2 IS    -187.6520649998967372 [AU]
 ======================================================================
 ITERATION STEP   3
 CPU time [min]:     0.487                   Wall time [min]:     0.532
 
 ALPHA OCC:   4   0   1   1   0   3   1   1
 BETA  OCC:   4   0   1   1   0   3   1   1
 ***HARTREE-FOCK ENERGY IN STEP   3 IS    -187.6906947531598462 [AU]
 ======================================================================
 ITERATION STEP   4
 CPU time [min]:     0.707                   Wall time [min]:     0.656
 
 ALPHA OCC:   4   0   1   1   0   3   1   1
 BETA  OCC:   4   0   1   1   0   3   1   1
 ***HARTREE-FOCK ENERGY IN STEP   4 IS    -187.7239625434654613 [AU]
 ======================================================================
 ITERATION STEP   5
 CPU time [min]:     0.913                   Wall time [min]:     0.781
 
 ALPHA OCC:   4   0   1   1   0   3   1   1
 BETA  OCC:   4   0   1   1   0   3   1   1
 ***HARTREE-FOCK ENERGY IN STEP   5 IS    -187.7242527822404270 [AU]
 ======================================================================
 ITERATION STEP   6
 CPU time [min]:     1.109                   Wall time [min]:     0.905
 
 ALPHA OCC:   4   0   1   1   0   3   1   1
 BETA  OCC:   4   0   1   1   0   3   1   1
 ***HARTREE-FOCK ENERGY IN STEP   6 IS    -187.7242852248068345 [AU]
 ======================================================================
 ITERATION STEP   7
 CPU time [min]:     1.300                   Wall time [min]:     1.029
 
 ALPHA OCC:   4   0   1   1   0   3   1   1
 BETA  OCC:   4   0   1   1   0   3   1   1
 ***HARTREE-FOCK ENERGY IN STEP   7 IS    -187.7242875785078127 [AU]
 ======================================================================
 ITERATION STEP   8
 CPU time [min]:     1.515                   Wall time [min]:     1.156
 
 ALPHA OCC:   4   0   1   1   0   3   1   1
 BETA  OCC:   4   0   1   1   0   3   1   1
 ***HARTREE-FOCK ENERGY IN STEP   8 IS    -187.7242876423144935 [AU]
 ======================================================================
 ITERATION STEP   9
 CPU time [min]:     1.735                   Wall time [min]:     1.282
 
 ALPHA OCC:   4   0   1   1   0   3   1   1
 BETA  OCC:   4   0   1   1   0   3   1   1
 ***HARTREE-FOCK ENERGY IN STEP   9 IS    -187.7242876444733497 [AU]
 ======================================================================
 ITERATION STEP  10
 CPU time [min]:     1.959                   Wall time [min]:     1.408
 
 ALPHA OCC:   4   0   1   1   0   3   1   1
 BETA  OCC:   4   0   1   1   0   3   1   1
 ***HARTREE-FOCK ENERGY IN STEP  10 IS    -187.7242876445093032 [AU]
 ======================================================================
 
 SUCCESS...
 THE SCF ITERATION HAS CONVERGED!
 
                   Ag  B1g B2g B3g Au  B1u B2u B3u 
 FINAL ALPHA OCC:   4   0   1   1   0   3   1   1
 FINAL BETA  OCC:   4   0   1   1   0   3   1   1
 
 ***FINAL HARTREE-FOCK ENERGY:   -187.7242876445093032 [AU]
 
 RETURNING FROM SCF ALGORITHM
 ======================================================================

 ************************ 2017-10-25 19:12:52 *************************
 Executing ovirt...

 ovirt, the routine of orbital optimization and integral transformation 
Wed Oct 25 19:12:52 EDT 2017
 Allocated memory:                  112640  Mb
 RHF calculation! 
 integral transforamtion: AOs ------ MOs
 # of basis functions, # of int. blocks   381     2
 50 % 
100 % 
 second part
 50 %
100 %
 integral transformation is completed! 
CPU and WC time        6358.85       17696.56     AOs -> MOs 
Integrals are written to fort.55
Thu Oct 26 02:09:40 EDT 2017
  ovirt terminated normally 

 ************************ 2017-10-26 02:09:41 *************************
 Executing goldstone...

 Generation of CC equations in terms of H and T...
 Generation of antisymmetrized Goldstone diagrams...
 Number of diagrams in T^1 equations:    15
 Number of diagrams in T^2 equations:    38
 Number of diagrams in T^3 equations:    49
 Number of diagrams in T^4 equations:     5
 Translation of diagrams to factorized equations...
 Optimizing intermediate calculation...
 Number of floating-point operations per iteration step:   1.0740E+16
 Probable CPU time per iteration step (hours): 107401.43
 Required memory (Mbytes): *********
 Number of intermediates:                                  79
 Number of intermediates to be stored:                     32
 Length of intermediate file (Mbytes):   42887.7

 ************************ 2017-10-26 02:09:44 *************************
 Executing xmrcc...

 **********************************************************************
 CC(3)(4) calculation 
 
 
 Allocation of****** Mbytes of memory...
 Number of spinorbitals:                   756
 Number of alpha electrons:                        8
 Number of beta electrons:                         8
 Spin multiplicity:                     1
 z-component of spin:  0.0
 Spatial symmetry:                      1
 Convergence criterion:  1.0E-07
 Construction of occupation graphs...
 Number of                     0 -fold excitations:                      1
 Number of                     1 -fold excitations:                    888
 Number of                     2 -fold excitations:                1600580
 Number of                     3 -fold excitations:             1533088192
 Total number of configurations:             1534689661
 Calculation of coupling coefficients...
 Length of intermediate file (Mbytes):   32072.1
 
 ======================================================================
 
 Spin case  1   Alpha:  0   Beta:  4
 Number of excitations:             6720740812
 Spin case  2   Alpha:  1   Beta:  3
 Number of excitations:           173490018688
 Spin case  3   Alpha:  2   Beta:  2
 Number of excitations:           456717146288
 Number of                     4 -fold excitations:           817138665288
 
 Memory requirements /Mbyte/: 
               Minimal        Optimal
 Real*8:      88151.8065    198225.7809
 Integer:      2069.9997
 Total:       90221.8062    200295.7806
 

 ************************ 2017-10-26 03:33:13 *************************
 Executing goldstone...

 Generation of CC equations in terms of H and T...
 Generation of antisymmetrized Goldstone diagrams...
 Number of diagrams in T^1 equations:    15
 Number of diagrams in T^2 equations:    33
 Number of diagrams in T^3 equations:     2
 Translation of diagrams to factorized equations...
 Optimizing intermediate calculation...
 Number of floating-point operations per iteration step:   4.4138E+12
 Probable CPU time per iteration step (hours):     44.14
 Required memory (Mbytes): 2443559.9
 Number of intermediates:                                  48
 Number of intermediates to be stored:                     20
 Length of intermediate file (Mbytes):   38889.6

 ************************ 2017-10-26 03:33:15 *************************
 Executing xmrcc...

 **********************************************************************
 CC(2)(3) calculation 
 
 
 Allocation of****** Mbytes of memory...
 Number of spinorbitals:                   756
 Number of alpha electrons:                        8
 Number of beta electrons:                         8
 Spin multiplicity:                     1
 z-component of spin:  0.0
 Spatial symmetry:                      1
 Convergence criterion:  1.0E-07
 Construction of occupation graphs...
 Number of                     0 -fold excitations:                      1
 Number of                     1 -fold excitations:                    888
 Number of                     2 -fold excitations:                1600580
 Total number of configurations:                1601469
 Calculation of coupling coefficients...
 Length of intermediate file (Mbytes):   29296.2
 
 ======================================================================
 
 Spin case  1   Alpha:  0   Beta:  3
 Number of excitations:               58563008
 Spin case  2   Alpha:  1   Beta:  2
 Number of excitations:              707981088
 Number of                     3 -fold excitations:             1533088192
 
 Memory requirements /Mbyte/: 
               Minimal        Optimal
 Real*8:      22605.5632    160046.5551
 Integer:        17.0949
 Total:       22622.6582    160063.6500
 

 ************************ 2017-10-26 03:33:20 *************************
 Executing mrcc...

 **********************************************************************
 CCSD(T) calculation                                                    
 
 
 OpenMP parallel version is running.
 Number of CPUs:  12
 Allocation of******* Mbytes of memory...
 Number of spinorbitals: 756
 Number of alpha electrons:  8
 Number of beta  electrons:  8
 Spin multiplicity: 1
 z-component of spin:  0.0
 Spatial symmetry: 1
 Convergence criterion:  1.0E-07
 Construction of occupation graphs...
 Number of 0-fold excitations: 1
 Number of 1-fold excitations: 888
 Number of 2-fold excitations: 1600580
 Total number of determinants: 1601469
 Calculation of coupling coefficients...
 Initial cluster amplitudes are generated.
 Length of intermediate file (Mbytes):   29296.2
 Reading integral list from unit 55...
 Warning! Executing out-of-core algorithm!
 Reading integral list: cycle  1 of  2
 Sorting integrals...
 Reading integral list: cycle  2 of  2
 Sorting integrals...
 Energy of reference determinant [au]:    -187.724287644509
 Calculation of MP denominators...
 
 Starting CC iteration...
 ======================================================================
 Norm of residual vector:     2.15866168
 CPU time [min]:    78.678                   Wall time [min]:   392.963
 
 Iteration  1  CC energy:  -188.39276810  Energy decrease:   0.66848045
 ======================================================================
 Norm of residual vector:     0.33270760
 CPU time [min]:   126.765                   Wall time [min]:   551.909
 
 Iteration  2  CC energy:  -188.35559098  Energy decrease:   0.03717712
 ======================================================================
 Norm of residual vector:     0.09302367
 CPU time [min]:   155.396                   Wall time [min]:   716.297
 
 Iteration  3  CC energy:  -188.36947735  Energy decrease:   0.01388637
 ======================================================================
 Norm of residual vector:     0.02483352
 CPU time [min]:   205.086                   Wall time [min]:   882.363
 
 Iteration  4  CC energy:  -188.37302614  Energy decrease:   0.00354879
 ======================================================================
 Norm of residual vector:     0.00888452
 CPU time [min]:   229.197                   Wall time [min]:  1048.700
 
 Iteration  5  CC energy:  -188.37255860  Energy decrease:   0.00046754
 ======================================================================
 Norm of residual vector:     0.00211036
 CPU time [min]:   257.701                   Wall time [min]:  1183.464
 
 Iteration  6  CC energy:  -188.37252090  Energy decrease:   0.00003770
 ======================================================================
 Norm of residual vector:     0.00052424
 CPU time [min]:   296.374                   Wall time [min]:  1338.052
 
 Iteration  7  CC energy:  -188.37252519  Energy decrease:   0.00000429
 ======================================================================
 Norm of residual vector:     0.00017184
 CPU time [min]:   321.317                   Wall time [min]:  1492.085
 
 Iteration  8  CC energy:  -188.37252247  Energy decrease:   0.00000272
 ======================================================================
 Norm of residual vector:     0.00004567
 CPU time [min]:   366.878                   Wall time [min]:  1648.180
 
 Iteration  9  CC energy:  -188.37252291  Energy decrease:   0.00000044
 ======================================================================
 Norm of residual vector:     0.00001300
 CPU time [min]:   417.173                   Wall time [min]:  1834.714
 
 Iteration 10  CC energy:  -188.37252300  Energy decrease:   0.00000009
 ======================================================================
 Norm of residual vector:     0.00000350
 CPU time [min]:   450.162                   Wall time [min]:  2017.220
 
 Iteration 11  CC energy:  -188.37252296  Energy decrease:   0.00000004
 ======================================================================
 Norm of residual vector:     0.00000110
 CPU time [min]:   477.598                   Wall time [min]:  2174.938
 
 Iteration 12  CC energy:  -188.37252296  Energy decrease:   1.8361E-09
 ======================================================================
 Norm of residual vector:     0.00000037
 CPU time [min]:   503.407                   Wall time [min]:  2330.902
 
 Iteration 13  CC energy:  -188.37252297  Energy decrease:   0.00000001
 ======================================================================
 Norm of residual vector:     0.00000011
 CPU time [min]:   530.639                   Wall time [min]:  2460.077
 
 Iteration 14  CC energy:  -188.37252297  Energy decrease:   2.8107E-09
 ======================================================================
 Norm of residual vector:     0.00000003
 CPU time [min]:   555.020                   Wall time [min]:  2603.326
 
 Iteration 15  CC energy:  -188.37252297  Energy decrease:   6.7141E-10
 ======================================================================
 
 Iteration has converged in 15 steps.
 
 Final results:
 Total CCSD energy [au]:            -188.372522968491
 Total MP2 energy [au]:             -188.392768097813
 
 Perturbative corrections are calculated...
 ======================================================================
 Spin case  1   Alpha:  0   Beta:  3
 Number of excitations:        58563008
 CPU time [min]:   564.708                   Wall time [min]:  2605.493
 ======================================================================
 Spin case  2   Alpha:  1   Beta:  2
 Number of excitations:        707981088
 CPU time [min]:   625.476                   Wall time [min]:  2610.826
 ======================================================================
 Number of 3-fold excitations: 1533088192
 CPU time [min]:   625.481                   Wall time [min]:  2610.826
 
 Total CCSD[T] energy [au]:         -188.407404161670
 Total CCSD(T) energy [au]:         -188.405169735989

 ************************ 2017-10-27 23:04:15 *************************
 Executing goldstone...

 Generation of CC equations in terms of H and T...
 Generation of antisymmetrized Goldstone diagrams...
 Number of diagrams in T^1 equations:    15
 Number of diagrams in T^2 equations:    38
 Number of diagrams in T^3 equations:    49
 Number of diagrams in T^4 equations:     5
 Translation of diagrams to factorized equations...
 Optimizing intermediate calculation...
 Number of floating-point operations per iteration step:   1.0740E+16
 Probable CPU time per iteration step (hours): 107401.43
 Required memory (Mbytes): *********
 Number of intermediates:                                  79
 Number of intermediates to be stored:                     32
 Length of intermediate file (Mbytes):   42887.7

 ************************ 2017-10-27 23:04:18 *************************
 Executing xmrcc...

 **********************************************************************
 CC(3)(4) calculation 
 
 
 Allocation of****** Mbytes of memory...
 Number of spinorbitals:                   756
 Number of alpha electrons:                        8
 Number of beta electrons:                         8
 Spin multiplicity:                     1
 z-component of spin:  0.0
 Spatial symmetry:                      1
 Convergence criterion:  1.0E-07
 Construction of occupation graphs...
 Number of                     0 -fold excitations:                      1
 Number of                     1 -fold excitations:                    888
 Number of                     2 -fold excitations:                1600580
 Number of                     3 -fold excitations:             1533088192
 Total number of configurations:             1534689661
 Calculation of coupling coefficients...
 Length of intermediate file (Mbytes):   32072.1
 
 ======================================================================
 
 Spin case  1   Alpha:  0   Beta:  4
 Number of excitations:             6720740812
 Spin case  2   Alpha:  1   Beta:  3
 Number of excitations:           173490018688
 Spin case  3   Alpha:  2   Beta:  2
 Number of excitations:           456717146288
 Number of                     4 -fold excitations:           817138665288
 
 Memory requirements /Mbyte/: 
               Minimal        Optimal
 Real*8:      88151.8065    198225.7809
 Integer:      2069.9997
 Total:       90221.8062    200295.7806
 

 ************************ 2017-10-27 23:15:58 *************************
 Executing mrcc...

 **********************************************************************
 CCSDT(Q) calculation                                                   
 
 
 OpenMP parallel version is running.
 Number of CPUs:  12
 Allocation of******* Mbytes of memory...
 Number of spinorbitals: 756
 Number of alpha electrons:  8
 Number of beta  electrons:  8
 Spin multiplicity: 1
 z-component of spin:  0.0
 Spatial symmetry: 1
 Convergence criterion:  1.0E-07
 Construction of occupation graphs...
 Number of 0-fold excitations: 1
 Number of 1-fold excitations: 888
 Number of 2-fold excitations: 1600580
 Number of 3-fold excitations: 1533088192
 Total number of determinants: 1534689661
 Calculation of coupling coefficients...
 Initial cluster amplitudes are read from unit 16.
 Length of intermediate file (Mbytes):   32072.1
 Reading integral list from unit 55...
 Warning! Executing out-of-core algorithm!
 Reading integral list: cycle  1 of  2
 Sorting integrals...
 Reading integral list: cycle  2 of  2
 Sorting integrals...
 Energy of reference determinant [au]:    -187.724287644509
 Calculation of MP denominators...
 
 Starting CC iteration...
 ======================================================================
 Norm of residual vector:     0.52969942
 CPU time [min]:  3157.476                   Wall time [min]:   998.645
 
 Iteration  1  CC energy:  -188.37252297  Energy decrease:   9.7202E-12
 ======================================================================
 Norm of residual vector:     0.12450568
 CPU time [min]:  6876.345                   Wall time [min]:  2005.678
 
 Iteration  2  CC energy:  -188.39578118  Energy decrease:   0.02325821
 ======================================================================
 Norm of residual vector:     0.04756966
 CPU time [min]: 11520.493                   Wall time [min]:  3161.830
 
 Iteration  3  CC energy:  -188.40309258  Energy decrease:   0.00731140
 ======================================================================
 Norm of residual vector:     0.01711472
 CPU time [min]: 14929.689                   Wall time [min]:  4077.084
 
 Iteration  4  CC energy:  -188.40391386  Energy decrease:   0.00082128
 ======================================================================
 Norm of residual vector:     0.00649537
 CPU time [min]: 18004.011                   Wall time [min]:  5193.537
 
 Iteration  5  CC energy:  -188.40452928  Energy decrease:   0.00061542
 ======================================================================
 Norm of residual vector:     0.00199603
 CPU time [min]: 21785.104                   Wall time [min]:  6422.546
 
 Iteration  6  CC energy:  -188.40454757  Energy decrease:   0.00001829
 ======================================================================
 Norm of residual vector:     0.00081051
 CPU time [min]: 26120.664                   Wall time [min]:  7728.345
 
 Iteration  7  CC energy:  -188.40452226  Energy decrease:   0.00002531
 ======================================================================
 Norm of residual vector:     0.00028035
 CPU time [min]: 29683.207                   Wall time [min]:  9026.558
 
 Iteration  8  CC energy:  -188.40453285  Energy decrease:   0.00001059
 ======================================================================
 Norm of residual vector:     0.00010416
 CPU time [min]: 32375.953                   Wall time [min]: 10193.362
 
 Iteration  9  CC energy:  -188.40453747  Energy decrease:   0.00000463
 ======================================================================
 Norm of residual vector:     0.00004341
 CPU time [min]: 35427.544                   Wall time [min]: 11378.089
 
 Iteration 10  CC energy:  -188.40453682  Energy decrease:   0.00000065
 ======================================================================
 Norm of residual vector:     0.00001728
 CPU time [min]: 38540.015                   Wall time [min]: 12549.288
 
 Iteration 11  CC energy:  -188.40453638  Energy decrease:   0.00000045
 ======================================================================
 Norm of residual vector:     0.00000669
 CPU time [min]: 41256.404                   Wall time [min]: 13476.816
 
 Iteration 12  CC energy:  -188.40453647  Energy decrease:   0.00000010
 ======================================================================
 Norm of residual vector:     0.00000266
 CPU time [min]: 44199.979                   Wall time [min]: 14563.458
 
 Iteration 13  CC energy:  -188.40453652  Energy decrease:   0.00000004
 ======================================================================
 Norm of residual vector:     0.00000094
 CPU time [min]: 46856.400                   Wall time [min]: 15603.033
 
 Iteration 14  CC energy:  -188.40453652  Energy decrease:   3.3370E-09
 ======================================================================
 Norm of residual vector:     0.00000036
 CPU time [min]: 50378.925                   Wall time [min]: 16903.038
 
 Iteration 15  CC energy:  -188.40453652  Energy decrease:   4.0927E-11
 ======================================================================
 Norm of residual vector:     0.00000014
 CPU time [min]: 53495.520                   Wall time [min]: 18123.648
 
 Iteration 16  CC energy:  -188.40453652  Energy decrease:   2.5258E-10
 ======================================================================
 Norm of residual vector:     0.00000005
 CPU time [min]: 56234.397                   Wall time [min]: 18830.178
 
 Iteration 17  CC energy:  -188.40453652  Energy decrease:   7.7989E-11
 ======================================================================
 
 Iteration has converged in 17 steps.
 
 Final results:
 Total CCSDT energy [au]:           -188.404536515639
 
 Perturbative corrections are calculated...
 ======================================================================
 Spin case  1   Alpha:  0   Beta:  4
 Number of excitations:        6720740812
 CPU time [min]: 69011.849                   Wall time [min]: 20080.831
 ======================================================================
 Spin case  2   Alpha:  1   Beta:  3
 Number of excitations:        173490018688
 CPU time [min]:225568.832                   Wall time [min]: 34261.695
 ======================================================================
 Spin case  3   Alpha:  2   Beta:  2
 Number of excitations:        456717146288




Restart with 18 cores?


 **********************************************************************
                          MRCC program system
 **********************************************************************
 
                              Written by
    Mihaly Kallay, Zoltan Rolik, Jozsef Csontos, Istvan Ladjanszki,
       Lorant Szegedy, Bence Ladoczki, Gyula Samu, Klara Petrov,
        Mate Farkas, Peter Nagy, David Mester, and Bence Hegely
 
        Department of Physical Chemistry and Materials Science
            Budapest University of Technology and Economics
                  Budapest P.O.Box 91, H-1521 Hungary
 
                              www.mrcc.hu

 ************************ 2017-10-28 09:30:23 *************************
 Executing minp...

 Reading input from MINP...
 
 Input file:
 
# TITLE
basis=aV5Z-EMSL
iface=cfour
uncontract=off
itol=15
calc=CCSDT(Q)
mem=128GB
core=3
cctol=7
ccmaxit=999
scfmaxit=9999
scftype=RHF

scfiguess=ao
rohftype=standard
mult=1
charge=0
rest=2

unit=angs
geom
C
O 1 R
O 1 R 2 OCO

R=1.163
OCO=180


 
 
 Checking keyword combinations...
 
 Keywords:
 
 active=none
 agrid=ld0006-ld0590
 basis=av5z-emsl
 basopt=off
 bpcompo=0.985
 bpcompv=0.98
 bpdfo=0.985
 bpocc=0.985
 bppdo=0.985
 bppdv=0.98
 bpedo=0.985
 bpedv=0.98
 calc=ccsdt(q)
 ccmaxit=999
 ccprog=mrcc
 cctol=7
 charge=0
 cialg=disk
 ciguess=off
 cmpgrp=auto
 core=3
 corembed=off
 dboc=off
 dendec=cholesky
 dens=0
 dfalg=invsqrt
 dfbasis_cor=none
 dfbasis_scf=none
 dfintran=ovirt
 dft=off
 diag=david
 domrad=10.d0
 drpaalg=fit
 ecp=auto
 edisp=off
 embed=off
 epert=none
 eps=0.975
 excrad=0.d0
 excrad_fin=0.000000000D+00
 freq=off
 gauss=spher
 geom=zmat
 gopt=off
 ghost=none
 gtol=7
 grtol=10
 hamilton=dc
 iface=cfour
 intalg=auto
 itol=15
 lcorthr=loose
 lccrest=off
 lmp2dens=on
 lnoepso=3e-5
 lnoepsv=1e-6
 localcc=off
 locintrf=disk
 maxact=off
 maxex=0
 bfbasis=none
 mem=128gb
 molden=on
 mulmet=0
 mult=1
 nacto=0
 nactv=0
 naf_cor=off
 naf_scf=off
 nafalg=albe
 naftyp=
 nchol=auto
 ndeps=1e-3
 nstate=1
 nsing=0
 ntrip=0
 occ=
 optalg=
 optmaxit=50
 optetol=1e-6
 optgtol=1e-4
 optstol=1e-3
 orblocc=off
 orbloco=off
 orblocv=off
 osveps=1e-3
 ovirt=off
 ovosnorb=80.0
 ptfreq=0.0
 popul=off
 pressure=100000
 qmmm=off
 refdet=none
 rest=2
 rgrid=log3
 rohftype=standard
 scspe=1.d0
 scsps=1.2d0
 scspt=0.33333333333333
 scfalg=auto
 scfdamp=off
 scfdiis=on
 scfdiis_end=9999
 scfdiis_start=1
 scfdiis_step=1
 scfdtol=11
 scfext=10
 scfiguess=ao
 scflshift=off
 scfmaxit=9999
 scftype=rhf
 scftol=7
 spairtol=1e-4
 symm=
 talg=occ
 temp=298.15
 test=off
 tprint=off
 uncontract=off
 unit=angs
 verbosity=2
 wpairtol=0.100000000E-05

 ************************ 2017-10-28 10:43:30 *************************
 Executing goldstone...

 Generation of CC equations in terms of H and T...
 Generation of antisymmetrized Goldstone diagrams...
 Number of diagrams in T^1 equations:    15
 Number of diagrams in T^2 equations:    38
 Number of diagrams in T^3 equations:    49
 Number of diagrams in T^4 equations:     5
 Translation of diagrams to factorized equations...
 Optimizing intermediate calculation...
 Number of floating-point operations per iteration step:   1.0740E+16
 Probable CPU time per iteration step (hours): 107401.43
 Required memory (Mbytes): *********
 Number of intermediates:                                  79
 Number of intermediates to be stored:                     32
 Length of intermediate file (Mbytes):   42887.7

 ************************ 2017-10-28 10:43:33 *************************
 Executing xmrcc...

 **********************************************************************
 CC(3)(4) calculation 
 
 
 Allocation of****** Mbytes of memory...
 Number of spinorbitals:                   756
 Number of alpha electrons:                        8
 Number of beta electrons:                         8
 Spin multiplicity:                     1
 z-component of spin:  0.0
 Spatial symmetry:                      1
 Convergence criterion:  1.0E-07
 Construction of occupation graphs...
 Number of                     0 -fold excitations:                      1
 Number of                     1 -fold excitations:                    888
 Number of                     2 -fold excitations:                1600580
 Number of                     3 -fold excitations:             1533088192
 Total number of configurations:             1534689661
 Calculation of coupling coefficients...
 Length of intermediate file (Mbytes):   32072.1
 
 ======================================================================
 
 Spin case  1   Alpha:  0   Beta:  4
 Number of excitations:             6720740812
 Spin case  2   Alpha:  1   Beta:  3
 Number of excitations:           173490018688
 Spin case  3   Alpha:  2   Beta:  2
 Number of excitations:           456717146288
 Number of                     4 -fold excitations:           817138665288
 
 Memory requirements /Mbyte/: 
               Minimal        Optimal
 Real*8:     120561.4595    230562.1549
 Integer:      2069.9997
 Total:      122631.4591    232632.1545
 

 ************************ 2017-10-28 11:46:58 *************************
 Executing goldstone...

 Generation of CC equations in terms of H and T...
 Generation of antisymmetrized Goldstone diagrams...
 Number of diagrams in T^1 equations:    15
 Number of diagrams in T^2 equations:    33
 Number of diagrams in T^3 equations:     2
 Translation of diagrams to factorized equations...
 Optimizing intermediate calculation...
 Number of floating-point operations per iteration step:   4.4138E+12
 Probable CPU time per iteration step (hours):     44.14
 Required memory (Mbytes): 2443559.9
 Number of intermediates:                                  48
 Number of intermediates to be stored:                     20
 Length of intermediate file (Mbytes):   38889.6

 ************************ 2017-10-28 11:47:00 *************************
 Executing xmrcc...

 **********************************************************************
 CC(2)(3) calculation 
 
 
 Allocation of****** Mbytes of memory...
 Number of spinorbitals:                   756
 Number of alpha electrons:                        8
 Number of beta electrons:                         8
 Spin multiplicity:                     1
 z-component of spin:  0.0
 Spatial symmetry:                      1
 Convergence criterion:  1.0E-07
 Construction of occupation graphs...
 Number of                     0 -fold excitations:                      1
 Number of                     1 -fold excitations:                    888
 Number of                     2 -fold excitations:                1600580
 Total number of configurations:                1601469
 Calculation of coupling coefficients...
 Length of intermediate file (Mbytes):   29296.2
 
 ======================================================================
 
 Spin case  1   Alpha:  0   Beta:  3
 Number of excitations:               58563008
 Spin case  2   Alpha:  1   Beta:  2
 Number of excitations:              707981088
 Number of                     3 -fold excitations:             1533088192
 
 Memory requirements /Mbyte/: 
               Minimal        Optimal
 Real*8:      24942.8263    162383.8182
 Integer:        17.0949
 Total:       24959.9213    162400.9131
 

 ************************ 2017-10-28 11:47:08 *************************
 Executing mrcc...

 **********************************************************************
 CCSD(T) calculation                                                    
 
 
 OpenMP parallel version is running.
 Number of CPUs:  18
 Allocation of******* Mbytes of memory...
 Number of spinorbitals: 756
 Number of alpha electrons:  8
 Number of beta  electrons:  8
 Spin multiplicity: 1
 z-component of spin:  0.0
 Spatial symmetry: 1
 Convergence criterion:  1.0E-07
 Construction of occupation graphs...
 Number of 0-fold excitations: 1
 Number of 1-fold excitations: 888
 Number of 2-fold excitations: 1600580
 Total number of determinants: 1601469
 Calculation of coupling coefficients...
 Initial cluster amplitudes are generated.
 Length of intermediate file (Mbytes):   29296.2
 Reading integral list from unit 55...
 Warning! Executing out-of-core algorithm!
 Reading integral list: cycle  1 of  2
 Sorting integrals...
 Reading integral list: cycle  2 of  2
 Sorting integrals...
 Energy of reference determinant [au]:    -187.724287644509
 Calculation of MP denominators...
 
 Starting CC iteration...
 ======================================================================
 Norm of residual vector:     2.15866168
 CPU time [min]:   115.260                   Wall time [min]:   536.365
 
 Iteration  1  CC energy:  -188.39276810  Energy decrease:   0.66848045
 ======================================================================
 Norm of residual vector:     0.33270760
 CPU time [min]:   177.598                   Wall time [min]:   761.426
 
 Iteration  2  CC energy:  -188.35559098  Energy decrease:   0.03717712
 ======================================================================
 Norm of residual vector:     0.09302367
 CPU time [min]:   242.854                   Wall time [min]:   986.974
 
 Iteration  3  CC energy:  -188.36947735  Energy decrease:   0.01388637
 ======================================================================
 Norm of residual vector:     0.02483352
 CPU time [min]:   303.490                   Wall time [min]:  1187.137
 
 Iteration  4  CC energy:  -188.37302614  Energy decrease:   0.00354879
 ======================================================================
 Norm of residual vector:     0.00888452
 CPU time [min]:   370.366                   Wall time [min]:  1387.772
 
 Iteration  5  CC energy:  -188.37255860  Energy decrease:   0.00046754
 ======================================================================
 Norm of residual vector:     0.00211036
 CPU time [min]:   438.925                   Wall time [min]:  1620.524
 
 Iteration  6  CC energy:  -188.37252090  Energy decrease:   0.00003770
 ======================================================================
 Norm of residual vector:     0.00052424
 CPU time [min]:   511.807                   Wall time [min]:  1885.836
 
 Iteration  7  CC energy:  -188.37252519  Energy decrease:   0.00000429
 ======================================================================
 Norm of residual vector:     0.00017184
 CPU time [min]:   579.747                   Wall time [min]:  2135.794
 
 Iteration  8  CC energy:  -188.37252247  Energy decrease:   0.00000272
 ======================================================================
 Norm of residual vector:     0.00004567
 CPU time [min]:   638.253                   Wall time [min]:  2323.293
 
 Iteration  9  CC energy:  -188.37252291  Energy decrease:   0.00000044
 ======================================================================
 Norm of residual vector:     0.00001300
 CPU time [min]:   706.455                   Wall time [min]:  2474.560
 
 Iteration 10  CC energy:  -188.37252300  Energy decrease:   0.00000009
 ======================================================================
 Norm of residual vector:     0.00000350
 CPU time [min]:   770.106                   Wall time [min]:  2623.288
 
 Iteration 11  CC energy:  -188.37252296  Energy decrease:   0.00000004
 ======================================================================
 Norm of residual vector:     0.00000110
 CPU time [min]:   837.350                   Wall time [min]:  2772.502
 
 Iteration 12  CC energy:  -188.37252296  Energy decrease:   1.8361E-09
 ======================================================================
 Norm of residual vector:     0.00000037
 CPU time [min]:   904.242                   Wall time [min]:  2972.234
 
 Iteration 13  CC energy:  -188.37252297  Energy decrease:   0.00000001
 ======================================================================
 Norm of residual vector:     0.00000011
 CPU time [min]:   966.016                   Wall time [min]:  3129.812
 
 Iteration 14  CC energy:  -188.37252297  Energy decrease:   2.8107E-09
 ======================================================================
 Norm of residual vector:     0.00000003
 CPU time [min]:  1030.313                   Wall time [min]:  3269.306
 
 Iteration 15  CC energy:  -188.37252297  Energy decrease:   6.7141E-10
 ======================================================================
 
 Iteration has converged in 15 steps.
 
 Final results:
 Total CCSD energy [au]:            -188.372522968491
 Total MP2 energy [au]:             -188.392768097813
 
 Perturbative corrections are calculated...
 ======================================================================
 Spin case  1   Alpha:  0   Beta:  3
 Number of excitations:        58563008
 CPU time [min]:  1040.504                   Wall time [min]:  3271.350
 ======================================================================
 Spin case  2   Alpha:  1   Beta:  2
 Number of excitations:        707981088
 CPU time [min]:  1104.842                   Wall time [min]:  3275.306
 ======================================================================
 Number of 3-fold excitations: 1533088192
 CPU time [min]:  1104.852                   Wall time [min]:  3275.307
 
 Total CCSD[T] energy [au]:         -188.407404161670
 Total CCSD(T) energy [au]:         -188.405169735989

 ************************ 2017-10-30 18:22:38 *************************
 Executing goldstone...

 Generation of CC equations in terms of H and T...
 Generation of antisymmetrized Goldstone diagrams...
 Number of diagrams in T^1 equations:    15
 Number of diagrams in T^2 equations:    38
 Number of diagrams in T^3 equations:    49
 Number of diagrams in T^4 equations:     5
 Translation of diagrams to factorized equations...
 Optimizing intermediate calculation...
 Number of floating-point operations per iteration step:   1.0740E+16
 Probable CPU time per iteration step (hours): 107401.43
 Required memory (Mbytes): *********
 Number of intermediates:                                  79
 Number of intermediates to be stored:                     32
 Length of intermediate file (Mbytes):   42887.7

 ************************ 2017-10-30 18:22:41 *************************
 Executing xmrcc...

 **********************************************************************
 CC(3)(4) calculation 
 
 
 Allocation of****** Mbytes of memory...
 Number of spinorbitals:                   756
 Number of alpha electrons:                        8
 Number of beta electrons:                         8
 Spin multiplicity:                     1
 z-component of spin:  0.0
 Spatial symmetry:                      1
 Convergence criterion:  1.0E-07
 Construction of occupation graphs...
 Number of                     0 -fold excitations:                      1
 Number of                     1 -fold excitations:                    888
 Number of                     2 -fold excitations:                1600580
 Number of                     3 -fold excitations:             1533088192
 Total number of configurations:             1534689661
 Calculation of coupling coefficients...
 Length of intermediate file (Mbytes):   32072.1
 
 ======================================================================
 
 Spin case  1   Alpha:  0   Beta:  4
 Number of excitations:             6720740812
 Spin case  2   Alpha:  1   Beta:  3
 Number of excitations:           173490018688
 Spin case  3   Alpha:  2   Beta:  2
 Number of excitations:           456717146288
 Number of                     4 -fold excitations:           817138665288
 
 Memory requirements /Mbyte/: 
               Minimal        Optimal
 Real*8:     120561.4595    230562.1549
 Integer:      2069.9997
 Total:      122631.4591    232632.1545
 

 ************************ 2017-10-30 18:34:31 *************************
 Executing mrcc...

 **********************************************************************
 CCSDT(Q) calculation                                                   
 
 
 OpenMP parallel version is running.
 Number of CPUs:  18
 Allocation of******* Mbytes of memory...
 Number of spinorbitals: 756
 Number of alpha electrons:  8
 Number of beta  electrons:  8
 Spin multiplicity: 1
 z-component of spin:  0.0
 Spatial symmetry: 1
 Convergence criterion:  1.0E-07
 Construction of occupation graphs...
 Number of 0-fold excitations: 1
 Number of 1-fold excitations: 888
 Number of 2-fold excitations: 1600580
 Number of 3-fold excitations: 1533088192
 Total number of determinants: 1534689661
 Calculation of coupling coefficients...
 Initial cluster amplitudes are read from unit 16.
 Length of intermediate file (Mbytes):   32072.1
 Reading integral list from unit 55...
 Warning! Executing out-of-core algorithm!
 Reading integral list: cycle  1 of  2
 Sorting integrals...
 Reading integral list: cycle  2 of  2
 Sorting integrals...
 Energy of reference determinant [au]:    -187.724287644509
 Calculation of MP denominators...
 
 Starting CC iteration...
 ======================================================================
 Norm of residual vector:     0.52969942
 CPU time [min]:  9455.271                   Wall time [min]:  1824.627
 
 Iteration  1  CC energy:  -188.37252297  Energy decrease:   9.7202E-12
 ======================================================================
 Norm of residual vector:     0.12450568
 CPU time [min]: 17807.596                   Wall time [min]:  3218.658
 
 Iteration  2  CC energy:  -188.39578118  Energy decrease:   0.02325821
 ======================================================================
 Norm of residual vector:     0.04756966
 CPU time [min]: 26063.343                   Wall time [min]:  4672.431
 
 Iteration  3  CC energy:  -188.40309258  Energy decrease:   0.00731140
 ======================================================================
 Norm of residual vector:     0.01711472
 CPU time [min]: 34797.247                   Wall time [min]:  6065.549
 
 Iteration  4  CC energy:  -188.40391386  Energy decrease:   0.00082128
 ======================================================================
 Norm of residual vector:     0.00649537
 CPU time [min]: 44120.371                   Wall time [min]:  7654.595
 
 Iteration  5  CC energy:  -188.40452928  Energy decrease:   0.00061542
 ======================================================================
 Norm of residual vector:     0.00199603
 CPU time [min]: 53415.729                   Wall time [min]:  9075.058
 
 Iteration  6  CC energy:  -188.40454757  Energy decrease:   0.00001829
 ======================================================================
 Norm of residual vector:     0.00081051
 CPU time [min]: 61885.505                   Wall time [min]: 10451.734
 
 Iteration  7  CC energy:  -188.40452226  Energy decrease:   0.00002531
 ======================================================================
 Norm of residual vector:     0.00028035
 CPU time [min]: 70768.343                   Wall time [min]: 11843.901
 
 Iteration  8  CC energy:  -188.40453285  Energy decrease:   0.00001059
 ======================================================================
 Norm of residual vector:     0.00010416
 CPU time [min]: 80067.122                   Wall time [min]: 13503.343
 
 Iteration  9  CC energy:  -188.40453747  Energy decrease:   0.00000463
 ======================================================================
 Norm of residual vector:     0.00004341
 CPU time [min]: 88515.689                   Wall time [min]: 15105.143
 
 Iteration 10  CC energy:  -188.40453682  Energy decrease:   0.00000065
 ======================================================================
 Norm of residual vector:     0.00001728
 CPU time [min]: 96174.660                   Wall time [min]: 16455.995
 
 Iteration 11  CC energy:  -188.40453638  Energy decrease:   0.00000045
 ======================================================================
 Norm of residual vector:     0.00000669
 CPU time [min]:103681.626                   Wall time [min]: 17898.129
 
 Iteration 12  CC energy:  -188.40453647  Energy decrease:   0.00000010
 ======================================================================
 Norm of residual vector:     0.00000266
 CPU time [min]:111522.261                   Wall time [min]: 19284.296
 
 Iteration 13  CC energy:  -188.40453652  Energy decrease:   0.00000004
 ======================================================================
 Norm of residual vector:     0.00000094
 CPU time [min]:118519.340                   Wall time [min]: 20476.747
 
 Iteration 14  CC energy:  -188.40453652  Energy decrease:   3.3370E-09
 ======================================================================
 Norm of residual vector:     0.00000036
 CPU time [min]:125608.889                   Wall time [min]: 21629.854
 
 Iteration 15  CC energy:  -188.40453652  Energy decrease:   4.0927E-11
 ======================================================================
 Norm of residual vector:     0.00000014
 CPU time [min]:132619.112                   Wall time [min]: 22752.548
 
 Iteration 16  CC energy:  -188.40453652  Energy decrease:   2.5258E-10
 ======================================================================
 Norm of residual vector:     0.00000005
 CPU time [min]:139495.034                   Wall time [min]: 23628.772
 
 Iteration 17  CC energy:  -188.40453652  Energy decrease:   7.7989E-11
 ======================================================================
 
 Iteration has converged in 17 steps.
 
 Final results:
 Total CCSDT energy [au]:           -188.404536515639
 
 Perturbative corrections are calculated...
 ======================================================================
 Spin case  1   Alpha:  0   Beta:  4
 Number of excitations:        6720740812
 CPU time [min]:153099.835                   Wall time [min]: 24569.931
 ======================================================================
 Spin case  2   Alpha:  1   Beta:  3
 Number of excitations:        173490018688
 CPU time [min]:325893.143                   Wall time [min]: 35114.764
 ======================================================================
 Spin case  3   Alpha:  2   Beta:  2
 Number of excitations:        456717146288
 CPU time [min]:679744.676                   Wall time [min]: 58008.490
 ======================================================================
 Number of 4-fold excitations: 817138665288
 CPU time [min]:679744.710                   Wall time [min]: 58008.492
 
 Total CCSDT[Q] energy [au]:        -188.404188290331
 Total CCSDT(Q) energy [au]:        -188.406779192451
 
 ************************ 2017-12-10 00:23:09 *************************
                      Normal termination of mrcc.
 **********************************************************************

